ITEM: TIMESTEP
290000
ITEM: NUMBER OF ATOMS
10
ITEM: BOX BOUNDS mm mm mm
-1.6000000000000000e+01 1.9187401761362910e+01
-1.6000000000000000e+01 1.6989168709483859e+01
-1.6000000000000000e+01 1.6000000000000000e+01
ITEM: ATOMS id type x y z
1 1 18.0072 16.2364 -7.27156
2 1 17.0318 16.4198 -7.22568
3 1 16.2832 16.6372 -6.70548
4 1 16.7885 16.8878 -5.90753
5 1 16.5978 16.0928 -5.4484
6 1 15.9316 16.5464 -4.98632
7 1 15.2935 15.9907 -5.45943
8 1 14.3426 16.0044 -5.44658
9 1 13.7683 15.9633 -6.13723
10 1 14.5623 16.111 -6.63774
ITEM: TIMESTEP
300000
ITEM: NUMBER OF ATOMS
32
ITEM: BOX BOUNDS mm mm mm
-1.6000000000000000e+01 2.0370352518819125e+01
-1.6000000000000000e+01 1.9049043557400438e+01
-1.6000000000000000e+01 1.6000000000000000e+01
ITEM: ATOMS id type x y z
1 1 14.3286 17.7554 -4.67975
2 1 14.2153 18.5695 -5.2641
3 1 14.5238 18.3024 -6.06026
4 1 15.422 18.5463 -5.98448
5 1 16.3092 18.6436 -5.68415
6 1 16.6602 18.0055 -6.37458
7 1 17.3507 18.0035 -6.9914
8 1 17.4275 18.8702 -7.33429
9 1 16.614 19.2816 -7.38413
10 1 15.9565 18.7497 -7.83371
ITEM: TIMESTEP
310000
ITEM: NUMBER OF ATOMS
32
ITEM: BOX BOUNDS mm mm mm
-1.6000000000000000e+01 2.0576715958802069e+01
-1.6000000000000000e+01 1.7517207059328967e+01
-1.6548544634586126e+01 1.6000000000000000e+01
ITEM: ATOMS id type x y z
1 1 19.4003 15.202 -9.3396
2 1 20.1274 15.0686 -9.94884
3 1 20.7097 14.9516 -10.6952
4 1 19.8911 14.971 -11.06
5 1 19.1974 14.9641 -10.3546
6 1 18.6262 14.2846 -9.97548
7 1 18.9394 13.6263 -10.5747
8 1 19.3432 13.351 -11.3214
9 1 19.4852 13.1572 -12.2559
10 1 19.9362 12.4412 -11.8069
