ITEM: TIMESTEP
280000
ITEM: NUMBER OF ATOMS
256
ITEM: BOX BOUNDS mm mm mm
-1.2800000000000000e+02 1.2800000000000000e+02
-1.2800000000000000e+02 1.2800000000000000e+02
-1.2800000000000000e+02 1.2800000000000000e+02
ITEM: ATOMS id type x y z
1 1 -36.8967 20.9924 -4.26514
2 1 -37.5011 20.428 -4.73024
3 1 -38.3731 20.7637 -4.69868
4 1 -39.1358 21.2585 -5.07137
5 1 -39.8877 21.3448 -5.60996
6 1 -40.2152 21.2766 -6.49007
7 1 -40.2756 22.1987 -6.29715
8 1 -41.0219 22.1109 -6.89344
9 1 -40.6819 22.3403 -7.78465
10 1 -40.0533 21.6126 -7.77515
11 1 -39.5262 21.8847 -8.49664
12 1 -39.3992 22.2928 -9.3387
13 1 -39.2587 21.3703 -9.33469
14 1 -38.5891 20.957 -8.89237
15 1 -38.2517 20.3921 -9.54852
16 1 -37.4906 19.9767 -9.87167
17 1 -37.6868 19.2377 -10.4487
18 1 -38.2732 18.9043 -11.0821
19 1 -38.2736 18.4354 -11.9049
20 1 -37.8335 18.6906 -12.7603
21 1 -37.2018 18.0586 -12.5527
22 1 -36.8933 17.7186 -11.7139
23 1 -36.2691 18.0622 -11.0768
24 1 -35.9268 17.1285 -11.2117
25 1 -36.0932 16.4554 -10.5634
26 1 -35.8298 16.6848 -9.67744
27 1 -35.3931 16.0048 -9.13492
28 1 -35.3301 15.1157 -8.72606
29 1 -34.7105 14.5388 -8.41391
30 1 -35.4025 14.0211 -8.85685
31 1 -35.2986 13.5405 -8.06002
32 1 -35.9286 13.3638 -7.45325
33 1 -36.4447 12.6326 -7.22121
34 1 -36.7011 12.0441 -6.5232
35 1 -36.2503 11.215 -6.48899
36 1 -36.4126 10.2777 -6.5169
37 1 -36.0502 9.93695 -5.7675
38 1 -36.2201 9.16531 -6.24251
39 1 -36.664 8.48002 -5.75313
40 1 -36.6857 7.90221 -4.9657
41 1 -35.9407 7.62588 -4.4305
42 1 -35.5628 6.94985 -5.00762
43 1 -34.8473 7.42872 -5.35415
44 1 -34.4576 6.74331 -4.88584
45 1 -33.8602 6.04753 -5.06283
46 1 -33.9432 5.22907 -5.54822
47 1 -33.4961 4.66975 -4.93176
48 1 -33.0362 4.68924 -4.13347
49 1 -33.3379 3.91836 -3.71016
50 1 -32.3942 3.74594 -3.61842
51 1 -32.2332 4.65141 -3.36139
52 1 -31.9723 5.19171 -2.60414
53 1 -31.4953 4.52782 -2.17918
54 1 -30.6451 4.83325 -2.20083
55 1 -29.7013 4.95991 -2.21349
56 1 -29.29 5.81738 -2.31258
57 1 -28.6825 5.18755 -1.96882
58 1 -28.9336 4.78447 -1.14735
59 1 -28.3344 4.11001 -0.821934
60 1 -28.8291 3.35939 -0.486361
61 1 -28.3831 3.23701 0.374753
62 1 -28.6173 3.5035 1.21885
63 1 -28.9846 2.66423 1.07854
64 1 -29.5499 2.06528 1.45059
65 1 -29.5935 1.32658 0.917563
66 1 -28.7673 0.994747 1.18225
67 1 -28.6917 0.116128 0.937123
68 1 -29.5803 -0.319103 0.937913
69 1 -28.8743 -0.699158 1.40437
70 1 -28.1249 -0.513654 1.94055
71 1 -27.5377 -0.108918 1.38066
72 1 -27.3288 -0.833033 0.819005
73 1 -26.96 -0.263518 0.175088
74 1 -26.2787 -0.61918 -0.352867
75 1 -26.2829 -1.49699 -0.711106
76 1 -26.0463 -2.05647 -0.0029722
77 1 -25.1967 -2.26699 -0.218448
78 1 -24.7797 -3.15837 -0.0313627
79 1 -24.4735 -3.06931 -0.928367
80 1 -23.5702 -2.76973 -1.14593
81 1 -23.0253 -2.09961 -0.801985
82 1 -22.8721 -1.33664 -0.22651
83 1 -22.0165 -1.36241 0.32051
84 1 -21.8455 -0.466475 0.566409
85 1 -21.4967 -0.326744 1.41336
86 1 -20.5976 -0.381142 1.54284
87 1 -19.7637 -0.0828638 1.39707
88 1 -19.0213 -0.690289 1.33222
89 1 -19.4869 -0.955492 2.13352
90 1 -18.7618 -0.459522 2.55819
91 1 -18.0212 -0.357208 1.96399
92 1 -17.7423 0.495205 1.79098
93 1 -16.91 0.868375 1.67826
94 1 -17.2692 1.38093 1.00986
95 1 -17.2479 2.22275 0.58169
96 1 -16.7771 2.10525 -0.203629
97 1 -15.9866 1.78876 0.232592
98 1 -15.2887 1.66291 0.849248
99 1 -15.4119 1.74829 1.79146
100 1 -15.5967 0.927283 2.26185
101 1 -14.7555 1.02522 2.55267
102 1 -14.9199 0.104019 2.68368
103 1 -14.6851 -0.104148 3.58314
104 1 -14.277 -0.615139 4.3011
105 1 -14.2906 -1.4903 3.97443
106 1 -14.5842 -2.04273 4.74933
107 1 -14.108 -1.73092 5.47058
108 1 -14.0462 -2.48174 6.03597
109 1 -13.8517 -3.28055 6.43161
110 1 -13.3727 -3.30697 5.65973
111 1 -13.2708 -3.72552 4.79867
112 1 -12.9868 -3.01488 4.27493
113 1 -12.1395 -3.20581 4.58513
114 1 -11.7071 -4.02484 4.51612
115 1 -11.1971 -4.12523 3.74691
116 1 -11.229 -5.02356 4.17077
117 1 -10.7228 -5.85846 4.35897
118 1 -10.4089 -5.14563 4.97001
119 1 -9.75994 -4.71866 5.34815
120 1 -9.9576 -5.3886 5.98596
121 1 -10.081 -6.19004 5.50951
122 1 -9.34446 -6.75283 5.23146
123 1 -8.83608 -6.03883 5.54721
124 1 -8.15716 -6.55097 5.99636
125 1 -7.27979 -6.04657 6.02417
126 1 -7.5281 -5.2587 5.61311
127 1 -7.50764 -5.81385 4.85504
128 1 -7.6096 -5.75584 3.854
129 1 -7.85659 -4.91363 3.5045
130 1 -7.39585 -4.19667 2.95653
131 1 -6.52709 -3.86816 3.10293
132 1 -6.40803 -3.73085 3.99275
133 1 -6.20199 -3.35451 4.7933
134 1 -5.68584 -2.67931 5.15304
135 1 -5.04877 -2.38017 4.53836
136 1 -4.30925 -2.35061 5.18086
137 1 -4.23001 -1.53152 5.55364
138 1 -3.41532 -1.44532 4.90606
139 1 -2.96529 -1.94179 4.23502
140 1 -2.94353 -2.9157 4.27447
141 1 -2.38237 -3.11914 3.52774
142 1 -1.99197 -4.02109 3.47121
143 1 -1.07068 -4.38254 3.67901
144 1 -0.794231 -4.11103 4.54541
145 1 0.146162 -4.02677 4.51052
146 1 0.74393 -3.30544 4.40143
147 1 0.348776 -2.43158 4.61141
148 1 0.444594 -1.68643 4.01743
149 1 0.998048 -0.951964 4.11873
150 1 1.68622 -1.61765 3.96438
151 1 2.13761 -2.52271 3.97956
152 1 2.90263 -2.37732 3.4341
153 1 3.32298 -2.29868 2.62438
154 1 3.99305 -2.88931 2.25546
155 1 4.45185 -3.12744 1.41195
156 1 4.88892 -3.65172 0.755094
157 1 5.71249 -3.63757 1.16361
158 1 5.99606 -3.04445 1.82389
159 1 6.41121 -3.30397 2.64208
160 1 6.62614 -2.77905 3.38435
161 1 7.53207 -2.73826 3.28276
162 1 8.31223 -2.25802 3.1534
163 1 8.77343 -2.20641 2.35619
164 1 9.43368 -1.56425 2.08761
165 1 9.25052 -0.842149 1.5124
166 1 10.1455 -0.494185 1.56267
167 1 10.493 0.253051 2.06554
168 1 10.9979 0.303032 1.24303
169 1 11.6924 0.882988 1.57613
170 1 12.5218 0.611162 1.93437
171 1 13.3933 0.593694 2.38308
172 1 13.5323 -0.106699 1.78526
173 1 12.9698 -0.380902 1.10024
174 1 13.4237 -0.562888 0.302748
175 1 13.8375 -1.3602 0.0951124
176 1 14.7227 -1.58686 0.340377
177 1 15.5867 -1.99359 0.0143688
178 1 16.31 -2.55716 -0.266154
179 1 16.9312 -1.8603 -0.471507
180 1 17.5315 -1.61102 -1.1376
181 1 17.2595 -1.11189 -1.86108
182 1 18.1612 -1.41801 -2.2006
183 1 18.6604 -0.737549 -1.88131
184 1 19.0287 -0.142102 -2.48249
185 1 19.8132 -0.482335 -2.02967
186 1 20.6444 -0.0822319 -2.15736
187 1 21.2046 -0.90641 -1.95727
188 1 21.6158 -1.49742 -1.38699
189 1 22.2883 -1.57212 -0.703096
190 1 22.1357 -0.70453 -0.369371
191 1 21.5085 -0.873162 0.33421
192 1 21.1028 -1.66903 0.366267
193 1 21.9488 -1.95347 0.1741
194 1 22.7258 -2.45333 0.25084
195 1 23.4485 -1.88143 0.315968
196 1 23.5049 -2.52735 1.00142
197 1 24.1206 -3.10193 1.40166
198 1 24.5597 -2.35758 1.68944
199 1 24.9777 -2.98636 2.30892
200 1 24.9228 -3.85848 1.9026
201 1 25.6976 -3.75691 1.45163
202 1 25.994 -4.41178 0.850115
203 1 26.4066 -4.37683 0.0038144
204 1 26.1419 -4.62435 -0.832798
205 1 25.5464 -4.00158 -0.539996
206 1 26.122 -3.16542 -0.405974
207 1 26.0757 -3.37129 -1.35652
208 1 26.5417 -2.58912 -1.44293
209 1 27.1579 -2.04416 -1.87089
210 1 27.4561 -2.80915 -2.33915
211 1 26.8818 -3.4104 -2.70812
212 1 27.0238 -3.08008 -3.5857
213 1 27.94 -3.16349 -3.42633
214 1 28.4858 -2.39985 -3.17044
215 1 29.0989 -1.69861 -3.36558
216 1 29.9739 -1.38027 -3.21272
217 1 30.7899 -1.36168 -2.84415
218 1 30.7841 -1.80529 -2.00558
219 1 30.5465 -0.853446 -1.94556
220 1 30.6898 -1.11923 -1.07469
221 1 31.4129 -0.930948 -0.521078
222 1 32.0436 -1.25838 0.0285638
223 1 32.9241 -0.899873 0.091093
224 1 33.1032 0.0316123 0.185651
225 1 33.2479 0.549028 0.97727
226 1 33.5867 1.40827 0.729382
227 1 33.0942 2.20386 0.560827
228 1 33.7392 2.68205 1.15929
229 1 32.9301 3.02922 1.50201
230 1 33.4697 3.73594 1.21773
231 1 33.4366 3.63795 0.316913
232 1 33.3846 4.34672 -0.286305
233 1 33.1771 4.98814 -0.908455
234 1 33.5918 4.28048 -1.29041
235 1 33.7581 3.46839 -1.77126
236 1 34.0432 3.70987 -2.61924
237 1 34.3877 3.28629 -3.37809
238 1 33.9639 3.85049 -3.99222
239 1 33.4232 3.24493 -4.5264
240 1 32.8891 3.7362 -5.11575
241 1 33.1792 4.35369 -5.81434
242 1 33.443 4.73976 -4.9882
243 1 32.749 5.3737 -4.97773
244 1 33.2282 5.81562 -5.65393
245 1 34.0153 5.89937 -6.21298
246 1 33.6723 5.14815 -6.75207
247 1 34.3773 4.57138 -6.79219
248 1 35.0499 4.2069 -6.28836
249 1 34.9263 3.4285 -5.85704
250 1 34.4669 2.6744 -5.52596
251 1 35.074 2.19056 -5.00412
252 1 35.4949 1.60346 -5.55375
253 1 35.8476 1.38816 -6.38524
254 1 36.0602 2.27927 -6.5758
255 1 36.5043 2.03912 -5.81637
256 1 37.4606 2.35473 -5.8102
ITEM: TIMESTEP
290000
ITEM: NUMBER OF ATOMS
256
ITEM: BOX BOUNDS mm mm mm
-1.2800000000000000e+02 1.2800000000000000e+02
-1.2800000000000000e+02 1.2800000000000000e+02
-1.2800000000000000e+02 1.2800000000000000e+02
ITEM: ATOMS id type x y z
1 1 -38.7337 17.4987 -9.89205
2 1 -38.8347 18.2861 -10.3897
3 1 -39.6514 17.9634 -10.7403
4 1 -40.1022 17.4729 -10.0273
5 1 -40.8451 16.95 -10.2557
6 1 -41.0008 17.2754 -9.39404
7 1 -40.8693 16.6896 -8.68631
8 1 -40.5562 17.4556 -8.25386
9 1 -39.8227 18.0614 -8.31539
10 1 -39.3306 18.252 -7.57758
11 1 -38.7677 18.6634 -8.12876
12 1 -38.4778 17.7561 -8.32825
13 1 -37.558 17.513 -8.06711
14 1 -37.3377 17.0294 -8.85064
15 1 -36.9356 16.7806 -9.68349
16 1 -36.0919 17.231 -9.7509
17 1 -35.962 17.8159 -10.4918
18 1 -36.0414 17.3764 -11.3197
19 1 -36.2471 16.4847 -11.4622
20 1 -37.0768 16.8602 -11.4
21 1 -37.0103 16.674 -12.3097
22 1 -37.0333 15.7081 -12.5374
23 1 -36.9515 15.1005 -11.8057
24 1 -36.4961 15.5347 -11.084
25 1 -35.549 15.4654 -11.1208
26 1 -35.3026 15.3021 -10.2447
27 1 -35.4884 14.6199 -9.65636
28 1 -35.8445 13.9656 -10.2606
29 1 -36.2644 13.5661 -9.47028
30 1 -36.9105 13.6697 -8.79647
31 1 -37.2282 13.3325 -7.97251
32 1 -37.8061 12.6473 -7.67431
33 1 -38.4992 12.254 -8.18034
34 1 -38.8317 11.4228 -7.92086
35 1 -38.3086 10.8644 -8.4456
36 1 -37.4154 11.1136 -8.61659
37 1 -36.9409 11.9223 -8.51865
38 1 -36.0326 11.9935 -8.25809
39 1 -35.4335 11.4861 -7.73996
40 1 -34.6326 11.5289 -7.32349
41 1 -34.3469 11.8983 -8.14366
42 1 -33.5872 12.3402 -7.78137
43 1 -32.8701 12.0931 -7.23612
44 1 -32.3544 12.3186 -6.51636
45 1 -32.1235 12.1093 -5.6713
46 1 -31.8411 11.4866 -5.09595
47 1 -31.5699 10.7772 -4.51378
48 1 -31.3937 10.1605 -3.8269
49 1 -31.0115 9.66808 -3.17846
50 1 -31.3461 8.89218 -2.8438
51 1 -30.912 9.03884 -2.03459
52 1 -30.4397 8.23068 -2.1252
53 1 -30.5638 7.45263 -1.70774
54 1 -30.7661 6.5819 -1.7937
55 1 -31.4144 6.03969 -1.42346
56 1 -31.1539 6.57416 -0.686876
57 1 -30.6754 5.87476 -0.334673
58 1 -29.8552 6.35912 -0.450508
59 1 -29.2832 5.78789 -0.877711
60 1 -28.4133 5.86677 -1.20073
61 1 -28.5395 4.96842 -1.51131
62 1 -28.6403 4.34145 -0.754364
63 1 -29.2935 3.85062 -1.2548
64 1 -29.2406 2.89335 -1.19242
65 1 -29.0684 2.02133 -1.42529
66 1 -29.245 1.89584 -0.486595
67 1 -28.4398 1.38984 -0.510847
68 1 -28.2153 0.513288 -0.73767
69 1 -27.8233 0.637242 0.0759996
70 1 -26.9463 1.01465 0.0525789
71 1 -27.0561 0.867832 -0.889402
72 1 -26.9562 -0.0120568 -1.11977
73 1 -26.6345 -0.471567 -0.411889
74 1 -26.1902 -0.802434 0.373664
75 1 -26.0023 -1.41084 -0.253265
76 1 -25.3196 -1.94805 -0.612388
77 1 -25.4591 -2.36322 -1.46258
78 1 -24.9851 -3.20008 -1.33013
79 1 -24.2524 -2.5027 -1.24074
80 1 -23.3971 -2.77567 -1.40427
81 1 -22.6687 -3.41059 -1.27166
82 1 -21.8219 -3.14653 -0.906493
83 1 -21.8104 -2.37695 -0.443622
84 1 -21.9837 -2.24548 -1.36268
85 1 -21.3771 -1.51433 -1.33257
86 1 -20.5721 -0.995285 -1.36398
87 1 -20.0557 -0.199519 -1.31222
88 1 -20.3832 0.61382 -1.02762
89 1 -19.493 0.884905 -0.921499
90 1 -19.5355 1.49287 -0.195713
91 1 -19.5227 1.34666 0.737699
92 1 -18.7771 1.44833 1.30376
93 1 -18.105 0.767245 1.34027
94 1 -17.4369 0.757028 1.99727
95 1 -16.5352 1.02335 1.7253
96 1 -16.4438 0.231251 2.20049
97 1 -16.7426 -0.396191 1.60945
98 1 -17.2897 -1.05047 1.19586
99 1 -17.756 -1.74414 0.722953
100 1 -16.9325 -1.82988 0.324708
101 1 -16.4543 -0.995297 0.312445
102 1 -15.7176 -1.64084 0.212095
103 1 -15.4127 -1.15906 0.968481
104 1 -15.0981 -0.455592 1.47742
105 1 -14.2271 -0.762487 1.32488
106 1 -13.4339 -0.449791 0.858465
107 1 -12.9194 -1.05467 1.3641
108 1 -12.1981 -1.67199 1.35151
109 1 -11.5443 -1.64231 2.05523
110 1 -10.6822 -1.70553 1.62332
111 1 -10.2295 -1.69989 2.47405
112 1 -10.5843 -2.50634 2.29286
113 1 -11.2028 -2.90592 2.88136
114 1 -11.8808 -3.32163 3.39735
115 1 -12.2054 -4.07707 2.89785
116 1 -11.764 -4.80893 3.20368
117 1 -11.1243 -4.23742 3.44032
118 1 -10.4911 -4.90011 3.6885
119 1 -10.1558 -4.04174 3.79807
120 1 -9.56918 -3.34742 3.65007
121 1 -9.81547 -2.69372 3.09683
122 1 -10.0807 -1.92372 3.52143
123 1 -9.76087 -1.0391 3.22364
124 1 -8.89129 -1.40388 3.17616
125 1 -8.1561 -1.5 3.77194
126 1 -7.45831 -1.91485 3.30234
127 1 -6.85604 -2.58621 3.4248
128 1 -6.60414 -3.11389 4.1328
129 1 -6.38861 -3.59775 4.89872
130 1 -5.54049 -3.74003 5.50961
131 1 -4.65059 -3.8002 5.85781
132 1 -4.14695 -2.99411 5.81289
133 1 -4.49477 -2.697 6.6604
134 1 -4.58251 -3.53221 7.12065
135 1 -3.70865 -3.64573 6.7837
136 1 -3.23825 -3.41828 5.99414
137 1 -3.06374 -3.66591 5.09979
138 1 -3.31772 -3.44303 4.22381
139 1 -2.42252 -3.1288 4.08542
140 1 -1.90661 -2.39858 3.94333
141 1 -1.46776 -2.51338 3.09836
142 1 -1.13996 -3.19514 2.53637
143 1 -1.28639 -2.54844 1.90835
144 1 -0.737753 -1.78505 1.78577
145 1 -0.0121657 -2.27434 1.46589
146 1 0.486241 -1.60649 1.98449
147 1 0.694309 -1.81552 2.84915
148 1 1.52116 -1.49936 2.61289
149 1 2.35659 -1.06327 2.37504
150 1 3.23719 -0.960356 2.66803
151 1 3.70893 -1.67983 2.38196
152 1 3.84941 -1.83407 1.45052
153 1 4.56199 -1.29402 1.69703
154 1 5.0417 -1.95709 1.22285
155 1 5.71473 -2.5874 1.39184
156 1 6.20369 -2.30184 2.23374
157 1 5.55531 -1.79401 2.63069
158 1 5.43668 -1.51371 3.59729
159 1 6.10989 -1.57487 4.26707
160 1 7.05007 -1.61574 4.46122
161 1 7.63428 -1.26535 3.81631
162 1 8.46749 -1.45207 3.36929
163 1 9.43608 -1.45161 3.27623
164 1 9.18687 -2.28188 3.64029
165 1 10.0193 -2.67779 3.43576
166 1 10.9682 -2.9236 3.2999
167 1 11.2737 -2.42533 2.60989
168 1 12.1882 -2.3062 2.57082
169 1 12.226 -3.13147 2.04028
170 1 12.463 -3.76278 1.40011
171 1 12.8447 -3.25172 0.687726
172 1 12.9078 -3.91446 0.0106049
173 1 12.8024 -4.04798 -0.900015
174 1 12.4863 -3.28902 -1.40282
175 1 12.3211 -2.49336 -1.8938
176 1 13.1745 -2.34889 -2.24185
177 1 14.0564 -2.27991 -2.44238
178 1 13.852 -1.46324 -2.04773
179 1 13.7042 -1.87253 -1.24275
180 1 13.5863 -2.85181 -1.31819
181 1 14.4926 -3.17237 -1.29042
182 1 15.3478 -2.85605 -1.50371
183 1 16.0865 -3.42338 -1.71534
184 1 16.5282 -3.44176 -0.89604
185 1 17.2729 -3.02165 -0.588833
186 1 17.3801 -2.40627 -1.31826
187 1 17.9759 -2.21672 -1.95868
188 1 18.9211 -2.1054 -2.11609
189 1 19.4354 -1.35317 -1.84499
190 1 20.108 -1.09787 -1.27233
191 1 20.5887 -0.862731 -0.487859
192 1 20.3699 -0.823779 0.423875
193 1 21.3177 -0.743146 0.7276
194 1 21.9762 -0.432369 0.125071
195 1 22.1872 -0.956988 -0.634369
196 1 22.5471 -1.48922 -1.29064
197 1 22.3796 -2.40359 -1.34458
198 1 22.7235 -3.10445 -0.856245
199 1 23.4588 -3.54118 -1.18906
200 1 24.2623 -3.78479 -0.854351
201 1 24.6107 -3.173 -1.48478
202 1 25.0833 -2.56087 -0.964062
203 1 25.3235 -1.86656 -1.5035
204 1 24.6827 -1.47943 -2.0396
205 1 24.0036 -1.92417 -2.47503
206 1 23.9319 -1.92143 -3.48427
207 1 24.6968 -2.33158 -3.19553
208 1 25.2992 -1.69425 -3.66037
209 1 25.8755 -2.41494 -3.64806
210 1 26.2109 -3.3038 -3.94724
211 1 26.6734 -3.04632 -3.16844
212 1 27.149 -3.81797 -2.9204
213 1 28.0514 -3.9255 -3.09271
214 1 28.4596 -3.10868 -3.02099
215 1 29.3687 -3.19553 -3.18114
216 1 30.2932 -3.06453 -3.17241
217 1 31.0739 -2.82124 -3.71181
218 1 31.1806 -2.24874 -2.99487
219 1 31.1462 -1.3994 -3.22484
220 1 31.4092 -0.582142 -2.84442
221 1 31.6001 -0.539299 -1.94813
222 1 32.4105 -0.145481 -2.20147
223 1 33.0519 0.418997 -2.48492
224 1 33.8423 0.727209 -2.79135
225 1 34.2675 1.13055 -3.56016
226 1 33.8595 0.984489 -4.3514
227 1 34.6081 0.632532 -4.71791
228 1 35.5477 0.597617 -4.74732
229 1 35.3356 1.45265 -5.07318
230 1 36.1549 1.91536 -5.15786
231 1 35.7771 2.71044 -4.97404
232 1 35.0315 2.92451 -4.38588
233 1 34.5197 3.56175 -4.76604
234 1 33.6143 3.59913 -4.63573
235 1 32.71 3.77843 -4.73178
236 1 32.2297 3.63272 -5.53579
237 1 31.9169 2.76337 -5.87598
238 1 32.7521 2.51071 -5.59817
239 1 33.6388 2.37261 -5.82972
240 1 33.563 2.76609 -6.64975
241 1 33.0625 2.44821 -7.35797
242 1 32.1 2.30641 -7.5837
243 1 31.9024 1.74371 -8.27812
244 1 31.639 1.00692 -8.76868
245 1 31.6764 0.208714 -8.24
246 1 32.5306 0.0217679 -7.97904
247 1 32.3502 -0.0971285 -7.05402
248 1 32.9824 -0.262332 -6.42352
249 1 33.903 -0.539909 -6.53827
250 1 34.7096 -0.570449 -6.99185
251 1 34.4634 0.368963 -6.98332
252 1 34.5299 0.418702 -7.92865
253 1 35.4176 0.284328 -7.69735
254 1 36.3172 0.313071 -7.64922
255 1 36.6264 -0.536861 -7.38488
256 1 36.7728 -1.3113 -7.86734
ITEM: TIMESTEP
300000
ITEM: NUMBER OF ATOMS
256
ITEM: BOX BOUNDS mm mm mm
-1.2800000000000000e+02 1.2800000000000000e+02
-1.2800000000000000e+02 1.2800000000000000e+02
-1.2800000000000000e+02 1.2800000000000000e+02
ITEM: ATOMS id type x y z
1 1 -42.041 21.1488 -4.13553
2 1 -41.5667 21.539 -4.84221
3 1 -40.896 21.9514 -5.32221
4 1 -40.5784 22.8167 -5.64896
5 1 -40.6173 23.3029 -6.45324
6 1 -41.2434 22.5983 -6.56051
7 1 -40.8082 22.2538 -7.30334
8 1 -41.1819 22.2555 -8.18089
9 1 -41.5301 22.0563 -8.99069
10 1 -41.9367 21.1675 -9.01647
11 1 -41.1239 20.9055 -8.60405
12 1 -41.6649 20.2853 -8.12
13 1 -40.9551 20.0914 -7.51337
14 1 -40.1287 20.1475 -7.09812
15 1 -39.3759 19.6171 -6.91637
16 1 -38.94 18.9612 -7.52809
17 1 -38.3171 18.5522 -8.08711
18 1 -37.924 17.737 -7.94758
19 1 -37.5691 17.2467 -8.66343
20 1 -36.8316 17.4047 -8.01714
21 1 -36.9754 16.6387 -7.48613
22 1 -36.3963 15.896 -7.70838
23 1 -36.8489 15.1657 -7.19981
24 1 -37.315 14.6183 -6.59166
25 1 -38.0354 15.1857 -6.36657
26 1 -38.2363 15.0995 -5.43281
27 1 -37.7424 14.6706 -4.71499
28 1 -37.9071 13.8633 -5.10021
29 1 -38.3403 13.1591 -4.71824
30 1 -38.5267 12.6525 -5.50897
31 1 -38.2603 11.7713 -5.48852
32 1 -37.7672 12.2886 -4.85038
33 1 -36.9885 12.3092 -5.30348
34 1 -36.1487 12.2584 -4.81506
35 1 -36.1739 11.3091 -4.86263
36 1 -36.0576 11.1644 -3.89178
37 1 -36.2544 11.3762 -2.99923
38 1 -36.3806 10.4706 -2.94362
39 1 -35.6334 10.6482 -2.35303
40 1 -34.996 11.0627 -1.81415
41 1 -34.4615 10.6609 -2.45893
42 1 -34.193 10.2849 -3.31735
43 1 -33.7792 10.2719 -4.16225
44 1 -33.2319 11.078 -4.33816
45 1 -33.1311 11.3026 -3.42661
46 1 -32.2671 11.7223 -3.57204
47 1 -31.4223 11.3006 -3.59146
48 1 -31.3169 10.4655 -3.25732
49 1 -31.7016 9.67992 -3.58143
50 1 -31.5059 9.02861 -4.20234
51 1 -31.6829 8.18367 -4.66546
52 1 -32.2351 8.0446 -5.52526
53 1 -31.4054 8.52234 -5.76866
54 1 -30.9855 7.75243 -6.04122
55 1 -31.3438 7.22846 -5.36264
56 1 -30.9782 6.43332 -5.27022
57 1 -30.2613 6.5902 -5.87444
58 1 -29.8972 7.30265 -5.44691
59 1 -29.8444 6.84022 -4.57968
60 1 -29.131 6.31566 -4.24141
61 1 -29.0739 7.0736 -3.70596
62 1 -28.9906 6.6048 -2.93394
63 1 -29.0641 5.70051 -2.75594
64 1 -28.4709 5.40289 -3.41997
65 1 -27.7138 5.16039 -2.85411
66 1 -27.0628 4.46457 -2.84305
67 1 -26.115 4.50864 -3.03304
68 1 -25.961 3.82127 -3.6405
69 1 -26.6289 3.49 -3.13048
70 1 -26.3069 2.7071 -2.7322
71 1 -25.7108 3.29539 -2.28261
72 1 -25.6573 3.67828 -1.45796
73 1 -25.121 3.21054 -0.853735
74 1 -24.401 2.67555 -0.690504
75 1 -23.6073 2.42783 -0.281836
76 1 -23.3493 2.0946 -1.17461
77 1 -22.5809 1.89734 -0.684394
78 1 -22.6595 0.988024 -0.587342
79 1 -22.2147 0.590421 -1.31185
80 1 -22.3921 -0.250745 -0.987235
81 1 -22.0701 0.158307 -0.215249
82 1 -21.4717 0.042133 0.463228
83 1 -21.0436 -0.683957 -0.0169409
84 1 -20.4739 -1.39444 -0.0997363
85 1 -20.1434 -2.23979 -0.0612761
86 1 -19.7816 -1.77512 0.791128
87 1 -19.6615 -1.79568 1.73751
88 1 -20.1437 -0.973154 1.93362
89 1 -20.8809 -0.8274 1.3468
90 1 -21.3727 -0.080089 1.68798
91 1 -21.9058 -0.810399 1.97718
92 1 -21.5924 -1.52087 2.41566
93 1 -20.7869 -1.10764 2.79223
94 1 -20.288 -1.58662 3.45235
95 1 -19.7078 -0.855745 3.30415
96 1 -18.9242 -1.41748 3.15615
97 1 -18.3552 -1.40762 3.95414
98 1 -17.7172 -2.02193 3.70287
99 1 -18.1842 -2.69799 4.27405
100 1 -18.5711 -2.86356 3.39789
101 1 -18.0042 -3.61321 3.66236
102 1 -17.1095 -3.23376 3.59529
103 1 -16.4206 -3.20775 4.25709
104 1 -15.6975 -2.91585 4.8359
105 1 -15.4029 -3.4393 5.60926
106 1 -14.7244 -3.26215 6.16682
107 1 -14.5807 -2.41773 5.74756
108 1 -14.0845 -2.05763 5.00861
109 1 -13.2626 -2.13855 5.40666
110 1 -12.3821 -2.26902 5.71093
111 1 -11.6543 -2.50648 6.25751
112 1 -11.2429 -2.69376 5.38437
113 1 -10.5568 -2.13456 5.72382
114 1 -9.72971 -2.19072 5.27345
115 1 -9.80068 -3.06457 5.68699
116 1 -9.07292 -3.71422 5.81537
117 1 -8.47801 -4.13128 5.23608
118 1 -8.35678 -4.66506 4.49779
119 1 -7.73948 -5.33821 4.18109
120 1 -7.41048 -6.06314 4.71838
121 1 -6.72408 -6.63718 4.74183
122 1 -5.85991 -6.26451 5.03174
123 1 -5.89991 -5.50886 5.52858
124 1 -4.97399 -5.44046 5.58197
125 1 -5.2831 -4.47723 5.78919
126 1 -4.60669 -3.76853 5.92643
127 1 -3.97938 -3.28327 5.49447
128 1 -3.92911 -2.34946 5.47321
129 1 -3.46319 -1.58487 5.25146
130 1 -2.66615 -1.00132 5.0896
131 1 -3.04618 -0.246342 4.85527
132 1 -3.37611 0.54156 5.22833
133 1 -4.06539 0.829833 5.80112
134 1 -4.47543 1.65495 6.08936
135 1 -5.17654 1.01575 6.12509
136 1 -5.36809 0.348297 5.48719
137 1 -5.31106 1.14624 4.95167
138 1 -5.15694 1.18732 4.03595
139 1 -4.35418 1.00095 4.47405
140 1 -3.57475 1.48364 4.63107
141 1 -2.68485 1.49205 4.62168
142 1 -2.18457 0.712939 4.55585
143 1 -1.76613 0.332879 3.82648
144 1 -1.09325 0.0598396 3.22914
145 1 -0.187142 0.106204 3.61607
146 1 0.691826 0.483981 3.94836
147 1 0.879424 0.830591 3.06252
148 1 0.890308 1.66969 3.43365
149 1 1.70974 2.20795 3.60626
150 1 2.21176 1.44882 3.84652
151 1 2.81698 0.81969 4.34852
152 1 3.38007 1.4911 4.06687
153 1 4.28537 1.52713 3.83472
154 1 5.15648 1.60074 3.49214
155 1 4.66778 2.02782 2.82104
156 1 3.84407 2.32588 2.36927
157 1 3.88548 1.95584 1.50969
158 1 4.61551 1.75149 0.912902
159 1 5.53032 1.50433 0.737733
160 1 6.00532 2.19417 0.245701
161 1 6.50327 1.82241 -0.417561
162 1 7.00189 1.4155 -1.17429
163 1 7.56554 1.76999 -1.8128
164 1 8.04815 1.10315 -2.20202
165 1 8.20996 0.422574 -1.55793
166 1 8.77747 0.509019 -0.81491
167 1 9.66043 0.616172 -0.641494
168 1 10.5419 0.731701 -0.802492
169 1 11.425 0.943087 -0.937066
170 1 11.8368 1.77017 -1.13849
171 1 12.6927 1.96842 -1.38264
172 1 12.3375 2.70226 -1.86109
173 1 11.9004 2.6188 -2.67137
174 1 12.5656 3.14249 -3.06909
175 1 13.1079 3.67117 -3.6594
176 1 13.9251 3.39708 -3.98928
177 1 14.4739 2.66106 -3.89117
178 1 13.7885 2.16633 -4.35043
179 1 13.7954 2.7568 -5.10983
180 1 14.1568 2.43326 -5.90581
181 1 13.9809 2.03216 -6.69596
182 1 14.1423 2.0759 -7.56899
183 1 14.9106 2.3532 -8.03837
184 1 15.7328 2.26552 -8.46542
185 1 16.5546 2.59457 -8.59996
186 1 17.2463 2.22855 -8.12882
187 1 17.6238 1.34166 -8.37591
188 1 18.5411 1.53153 -8.17982
189 1 18.8319 1.28085 -7.31188
190 1 18.996 1.75438 -6.55073
191 1 19.765 2.2669 -6.56356
192 1 20.6755 2.18734 -6.60313
193 1 21.555 2.08969 -6.38539
194 1 22.3125 2.2567 -6.97209
195 1 23.2604 2.18642 -6.82767
196 1 24.1774 2.08975 -6.67765
197 1 24.4921 1.48463 -6.03271
198 1 24.9611 2.15921 -5.56189
199 1 25.2832 2.85066 -5.02959
200 1 25.6334 3.05583 -4.16824
201 1 26.5707 2.86744 -4.04479
202 1 26.1062 2.71526 -3.26157
203 1 26.6965 2.92294 -2.53919
204 1 27.1353 2.20734 -2.16079
205 1 27.0631 2.97249 -1.62698
206 1 27.8081 3.0685 -2.24521
207 1 28.2407 2.8354 -3.10157
208 1 28.622 2.81969 -3.95029
209 1 29.5342 2.95496 -4.33242
210 1 29.9951 2.32059 -3.80617
211 1 30.7666 1.80338 -3.96229
212 1 31.0658 2.20054 -3.19698
213 1 31.9341 2.26404 -3.68043
214 1 32.3203 2.18572 -4.52398
215 1 32.9447 1.58352 -4.28113
216 1 32.8493 1.07568 -3.47268
217 1 33.3423 0.557484 -2.90379
218 1 33.7164 -0.29137 -2.85291
219 1 33.7063 0.184551 -2.0192
220 1 33.682 1.20552 -2.09321
221 1 34.5333 1.07014 -1.69701
222 1 35.0057 1.26537 -0.942914
223 1 35.4238 2.10224 -0.742439
224 1 35.175 2.69608 -0.0524059
225 1 34.5614 3.09075 -0.700328
226 1 34.0473 3.89606 -0.504974
227 1 33.2264 3.84163 -1.08115
228 1 32.7107 4.17502 -1.80811
229 1 32.1019 4.00214 -2.50179
230 1 32.4054 4.38942 -3.33403
231 1 32.3749 4.27743 -4.28378
232 1 32.5878 3.8438 -5.07186
233 1 32.8953 4.6315 -5.41099
234 1 32.2123 5.05182 -5.84037
235 1 31.3825 5.23453 -5.49591
236 1 30.5019 5.42595 -5.78345
237 1 30.9382 5.67977 -6.59465
238 1 30.8374 5.66526 -7.58567
239 1 31.4673 4.98784 -7.84579
240 1 32.1793 4.82663 -8.38513
241 1 32.7336 4.50868 -9.0503
242 1 33.1942 4.57384 -8.21794
243 1 33.7733 4.27577 -7.49507
244 1 33.1145 3.88929 -6.91819
245 1 33.4804 4.71829 -6.66437
246 1 33.0274 5.41005 -7.18048
247 1 33.4338 5.6694 -7.9728
248 1 34.1162 5.21353 -8.50389
249 1 34.5322 4.47188 -8.88833
250 1 34.2521 3.66471 -9.17666
251 1 33.3083 3.50627 -9.22516
252 1 32.7227 3.41786 -9.96056
253 1 32.7131 2.59654 -10.3678
254 1 33.1655 2.77701 -11.266
255 1 33.945 2.41509 -10.9899
256 1 33.5403 1.58814 -10.8317
ITEM: TIMESTEP
310000
ITEM: NUMBER OF ATOMS
256
ITEM: BOX BOUNDS mm mm mm
-1.2800000000000000e+02 1.2800000000000000e+02
-1.2800000000000000e+02 1.2800000000000000e+02
-1.2800000000000000e+02 1.2800000000000000e+02
ITEM: ATOMS id type x y z
1 1 -44.7368 17.6997 -8.08387
2 1 -45.6206 17.45 -8.27964
3 1 -46.0399 16.7137 -7.7478
4 1 -46.9266 16.6482 -7.37314
5 1 -47.2174 17.5074 -7.08586
6 1 -46.737 17.1425 -6.36302
7 1 -46.4589 16.5793 -5.65106
8 1 -45.7645 16.9029 -5.04529
9 1 -45.7499 15.9634 -5.06527
10 1 -45.135 15.7651 -4.35834
11 1 -45.6554 15.0521 -3.93926
12 1 -45.032 14.4059 -3.60344
13 1 -44.2421 14.8951 -3.74589
14 1 -44.0041 15.8317 -3.36048
15 1 -43.3272 16.1484 -2.77282
16 1 -42.8256 16.8844 -2.34268
17 1 -42.7485 17.7681 -2.71296
18 1 -41.8748 17.4916 -2.78212
19 1 -41.2544 17.3374 -3.40893
20 1 -41.9962 17.5693 -3.99287
21 1 -41.9651 17.2751 -4.8988
22 1 -41.5694 16.4029 -4.93168
23 1 -41.2552 15.5681 -4.9224
24 1 -40.897 15.2458 -5.73679
25 1 -41.3243 14.5952 -6.22264
26 1 -40.9675 13.9324 -5.576
27 1 -40.5678 14.5368 -4.99918
28 1 -39.9202 13.8341 -4.94446
29 1 -39.5685 13.7341 -5.79243
30 1 -38.9175 14.3774 -5.93204
31 1 -38.1575 14.4006 -6.51464
32 1 -37.8661 14.3025 -7.42163
33 1 -38.0303 14.5998 -8.29652
34 1 -38.2403 15.3344 -8.79782
35 1 -37.7593 14.5804 -9.23697
36 1 -37.6504 15.0115 -10.1183
37 1 -37.0275 14.2871 -10.1187
38 1 -36.961 13.5733 -10.7505
39 1 -36.96 12.6246 -10.8352
40 1 -36.0308 12.5144 -11.098
41 1 -35.2711 12.4932 -11.733
42 1 -34.7865 13.1799 -11.4295
43 1 -34.5215 12.554 -10.8407
44 1 -34.0216 12.6119 -10.0493
45 1 -33.3168 12.0441 -10.3137
46 1 -33.4847 11.3745 -9.66522
47 1 -33.5578 10.7718 -8.95208
48 1 -33.0401 10.6598 -8.15267
49 1 -33.1919 10.0864 -7.44715
50 1 -33.3694 9.17819 -7.36427
51 1 -33.4407 8.29257 -7.05683
52 1 -34.3111 8.15365 -6.73926
53 1 -34.4673 7.37215 -6.34263
54 1 -34.7357 7.78098 -5.56048
55 1 -34.3176 7.22513 -4.92254
56 1 -33.3797 7.14303 -4.84822
57 1 -32.3472 7.08091 -4.96035
58 1 -31.5662 6.57025 -4.69614
59 1 -31.1509 7.50651 -4.59441
60 1 -30.3527 8.05972 -4.73557
61 1 -30.6176 8.80433 -5.20723
62 1 -29.9705 9.38758 -5.49607
63 1 -29.0589 9.30807 -5.33607
64 1 -28.568 9.26769 -4.51119
65 1 -28.6574 8.40051 -4.09543
66 1 -28.1139 8.44928 -3.36921
67 1 -27.4738 8.10935 -2.77425
68 1 -27.1062 7.28784 -3.07611
69 1 -27.3104 6.5857 -2.51152
70 1 -26.3905 6.38626 -2.55629
71 1 -25.4955 6.26975 -2.53629
72 1 -24.9691 5.73259 -3.06005
73 1 -24.0935 5.35118 -3.20361
74 1 -23.2698 5.30887 -2.66582
75 1 -22.6002 5.05522 -2.05097
76 1 -22.9847 4.24785 -1.87025
77 1 -22.7514 3.39752 -2.12248
78 1 -21.9019 2.92823 -2.11184
79 1 -21.5938 2.02894 -2.12106
80 1 -20.6966 1.69535 -2.20183
81 1 -20.7685 2.25556 -1.46045
82 1 -20.6974 2.27553 -0.522901
83 1 -21.2054 1.73799 0.0638075
84 1 -21.0957 1.28422 0.875846
85 1 -21.174 0.496958 1.40021
86 1 -21.0658 0.186334 2.27598
87 1 -20.9952 0.295296 3.16037
88 1 -20.1992 0.304368 3.72691
89 1 -19.594 -0.342515 4.00194
90 1 -19.4081 -1.12484 4.39268
91 1 -19.0399 -1.18909 5.30104
92 1 -18.2158 -1.08421 4.8937
93 1 -17.851 -0.825357 4.04259
94 1 -17.2924 -1.42324 3.44717
95 1 -16.5069 -1.93106 3.72649
96 1 -15.8432 -2.57577 3.68266
97 1 -15.1096 -1.97307 3.76912
98 1 -15.151 -2.0043 4.71694
99 1 -15.0859 -1.93133 5.65847
100 1 -14.6513 -1.29393 6.24471
101 1 -14.9871 -0.915672 7.07032
102 1 -14.2444 -1.42339 7.41885
103 1 -13.3541 -1.80064 7.61316
104 1 -12.962 -2.3844 6.98811
105 1 -12.2684 -1.91299 7.39209
106 1 -12.2341 -1.1113 6.86233
107 1 -11.8432 -1.72411 6.27707
108 1 -11.1756 -1.55058 5.63949
109 1 -10.4308 -2.02402 5.31049
110 1 -11.1248 -2.29586 4.68317
111 1 -11.9514 -2.71917 4.60688
112 1 -11.6757 -3.15415 5.3476
113 1 -10.8877 -3.53546 5.72531
114 1 -10.167 -3.03704 5.97656
115 1 -9.67435 -3.02169 6.78712
116 1 -8.96818 -3.26916 7.36297
117 1 -8.46022 -2.45326 7.37828
118 1 -7.69005 -2.20349 6.86076
119 1 -7.62534 -1.35838 6.49298
120 1 -6.99009 -0.657595 6.37479
121 1 -6.6807 0.182236 6.63005
122 1 -6.69237 0.783487 5.96783
123 1 -7.2542 0.399005 5.31296
124 1 -7.04227 -0.528323 5.23701
125 1 -6.13631 -0.560465 5.42327
126 1 -5.71512 -0.394732 6.28086
127 1 -4.84435 -0.0510849 6.22775
128 1 -3.991 -0.0103131 5.87734
129 1 -3.46956 0.209027 5.17644
130 1 -2.62869 0.607673 5.35997
131 1 -2.3526 -0.255481 5.39876
132 1 -1.54637 0.28594 5.59419
133 1 -1.02068 0.592179 4.8185
134 1 -0.937959 -0.0855652 4.22157
135 1 -0.255474 -0.287687 3.6122
136 1 -0.851621 0.225152 3.13681
137 1 -0.326027 0.948345 2.83666
138 1 -0.465727 1.86884 2.80248
139 1 -0.299609 2.46231 3.5461
140 1 0.550678 2.32136 3.99564
141 1 1.20845 2.02055 3.36181
142 1 1.58264 1.33027 2.84201
143 1 2.27143 1.92902 3.02103
144 1 2.34125 2.03844 2.08401
145 1 3.28823 2.18919 1.83029
146 1 4.09607 1.81335 1.58499
147 1 4.73209 2.31467 1.01208
148 1 5.10676 2.7679 0.296932
149 1 5.99012 2.62521 0.0417893
150 1 6.54827 3.25896 0.497125
151 1 7.32212 3.55792 0.800066
152 1 6.69376 4.207 1.12163
153 1 6.88851 5.0257 1.66073
154 1 6.54125 5.77157 1.22831
155 1 7.45205 6.07874 1.11813
156 1 8.39945 5.98167 1.03705
157 1 8.94714 6.15527 1.81159
158 1 9.66455 6.76837 2.03239
159 1 9.55189 6.78029 1.05716
160 1 10.2362 7.41981 0.908621
161 1 10.3908 6.59099 0.53332
162 1 11.2777 6.28805 0.488109