#Arrangement of polymers snaking through a cube orientation

     512 atoms
     511 bonds
     510 angles

       1 atom types
       1 bond types
       1 angle types

-256.000000 256.000000 xlo xhi
-256.000000 256.000000 ylo yhi
-256.000000 256.000000 zlo zhi

Masses

 1 1

Atoms

       1        1        1 -243.200000 0.000000 0.000000
       2        1        1 -242.250000 0.000000 0.000000
       3        1        1 -241.300000 0.000000 0.000000
       4        1        1 -240.350000 0.000000 0.000000
       5        1        1 -239.400000 0.000000 0.000000
       6        1        1 -238.450000 0.000000 0.000000
       7        1        1 -237.500000 0.000000 0.000000
       8        1        1 -236.550000 0.000000 0.000000
       9        1        1 -235.600000 0.000000 0.000000
      10        1        1 -234.650000 0.000000 0.000000
      11        1        1 -233.700000 0.000000 0.000000
      12        1        1 -232.750000 0.000000 0.000000
      13        1        1 -231.800000 0.000000 0.000000
      14        1        1 -230.850000 0.000000 0.000000
      15        1        1 -229.900000 0.000000 0.000000
      16        1        1 -228.950000 0.000000 0.000000
      17        1        1 -228.000000 0.000000 0.000000
      18        1        1 -227.050000 0.000000 0.000000
      19        1        1 -226.100000 0.000000 0.000000
      20        1        1 -225.150000 0.000000 0.000000
      21        1        1 -224.200000 0.000000 0.000000
      22        1        1 -223.250000 0.000000 0.000000
      23        1        1 -222.300000 0.000000 0.000000
      24        1        1 -221.350000 0.000000 0.000000
      25        1        1 -220.400000 0.000000 0.000000
      26        1        1 -219.450000 0.000000 0.000000
      27        1        1 -218.500000 0.000000 0.000000
      28        1        1 -217.550000 0.000000 0.000000
      29        1        1 -216.600000 0.000000 0.000000
      30        1        1 -215.650000 0.000000 0.000000
      31        1        1 -214.700000 0.000000 0.000000
      32        1        1 -213.750000 0.000000 0.000000
      33        1        1 -212.800000 0.000000 0.000000
      34        1        1 -211.850000 0.000000 0.000000
      35        1        1 -210.900000 0.000000 0.000000
      36        1        1 -209.950000 0.000000 0.000000
      37        1        1 -209.000000 0.000000 0.000000
      38        1        1 -208.050000 0.000000 0.000000
      39        1        1 -207.100000 0.000000 0.000000
      40        1        1 -206.150000 0.000000 0.000000
      41        1        1 -205.200000 0.000000 0.000000
      42        1        1 -204.250000 0.000000 0.000000
      43        1        1 -203.300000 0.000000 0.000000
      44        1        1 -202.350000 0.000000 0.000000
      45        1        1 -201.400000 0.000000 0.000000
      46        1        1 -200.450000 0.000000 0.000000
      47        1        1 -199.500000 0.000000 0.000000
      48        1        1 -198.550000 0.000000 0.000000
      49        1        1 -197.600000 0.000000 0.000000
      50        1        1 -196.650000 0.000000 0.000000
      51        1        1 -195.700000 0.000000 0.000000
      52        1        1 -194.750000 0.000000 0.000000
      53        1        1 -193.800000 0.000000 0.000000
      54        1        1 -192.850000 0.000000 0.000000
      55        1        1 -191.900000 0.000000 0.000000
      56        1        1 -190.950000 0.000000 0.000000
      57        1        1 -190.000000 0.000000 0.000000
      58        1        1 -189.050000 0.000000 0.000000
      59        1        1 -188.100000 0.000000 0.000000
      60        1        1 -187.150000 0.000000 0.000000
      61        1        1 -186.200000 0.000000 0.000000
      62        1        1 -185.250000 0.000000 0.000000
      63        1        1 -184.300000 0.000000 0.000000
      64        1        1 -183.350000 0.000000 0.000000
      65        1        1 -182.400000 0.000000 0.000000
      66        1        1 -181.450000 0.000000 0.000000
      67        1        1 -180.500000 0.000000 0.000000
      68        1        1 -179.550000 0.000000 0.000000
      69        1        1 -178.600000 0.000000 0.000000
      70        1        1 -177.650000 0.000000 0.000000
      71        1        1 -176.700000 0.000000 0.000000
      72        1        1 -175.750000 0.000000 0.000000
      73        1        1 -174.800000 0.000000 0.000000
      74        1        1 -173.850000 0.000000 0.000000
      75        1        1 -172.900000 0.000000 0.000000
      76        1        1 -171.950000 0.000000 0.000000
      77        1        1 -171.000000 0.000000 0.000000
      78        1        1 -170.050000 0.000000 0.000000
      79        1        1 -169.100000 0.000000 0.000000
      80        1        1 -168.150000 0.000000 0.000000
      81        1        1 -167.200000 0.000000 0.000000
      82        1        1 -166.250000 0.000000 0.000000
      83        1        1 -165.300000 0.000000 0.000000
      84        1        1 -164.350000 0.000000 0.000000
      85        1        1 -163.400000 0.000000 0.000000
      86        1        1 -162.450000 0.000000 0.000000
      87        1        1 -161.500000 0.000000 0.000000
      88        1        1 -160.550000 0.000000 0.000000
      89        1        1 -159.600000 0.000000 0.000000
      90        1        1 -158.650000 0.000000 0.000000
      91        1        1 -157.700000 0.000000 0.000000
      92        1        1 -156.750000 0.000000 0.000000
      93        1        1 -155.800000 0.000000 0.000000
      94        1        1 -154.850000 0.000000 0.000000
      95        1        1 -153.900000 0.000000 0.000000
      96        1        1 -152.950000 0.000000 0.000000
      97        1        1 -152.000000 0.000000 0.000000
      98        1        1 -151.050000 0.000000 0.000000
      99        1        1 -150.100000 0.000000 0.000000
     100        1        1 -149.150000 0.000000 0.000000
     101        1        1 -148.200000 0.000000 0.000000
     102        1        1 -147.250000 0.000000 0.000000
     103        1        1 -146.300000 0.000000 0.000000
     104        1        1 -145.350000 0.000000 0.000000
     105        1        1 -144.400000 0.000000 0.000000
     106        1        1 -143.450000 0.000000 0.000000
     107        1        1 -142.500000 0.000000 0.000000
     108        1        1 -141.550000 0.000000 0.000000
     109        1        1 -140.600000 0.000000 0.000000
     110        1        1 -139.650000 0.000000 0.000000
     111        1        1 -138.700000 0.000000 0.000000
     112        1        1 -137.750000 0.000000 0.000000
     113        1        1 -136.800000 0.000000 0.000000
     114        1        1 -135.850000 0.000000 0.000000
     115        1        1 -134.900000 0.000000 0.000000
     116        1        1 -133.950000 0.000000 0.000000
     117        1        1 -133.000000 0.000000 0.000000
     118        1        1 -132.050000 0.000000 0.000000
     119        1        1 -131.100000 0.000000 0.000000
     120        1        1 -130.150000 0.000000 0.000000
     121        1        1 -129.200000 0.000000 0.000000
     122        1        1 -128.250000 0.000000 0.000000
     123        1        1 -127.300000 0.000000 0.000000
     124        1        1 -126.350000 0.000000 0.000000
     125        1        1 -125.400000 0.000000 0.000000
     126        1        1 -124.450000 0.000000 0.000000
     127        1        1 -123.500000 0.000000 0.000000
     128        1        1 -122.550000 0.000000 0.000000
     129        1        1 -121.600000 0.000000 0.000000
     130        1        1 -120.650000 0.000000 0.000000
     131        1        1 -119.700000 0.000000 0.000000
     132        1        1 -118.750000 0.000000 0.000000
     133        1        1 -117.800000 0.000000 0.000000
     134        1        1 -116.850000 0.000000 0.000000
     135        1        1 -115.900000 0.000000 0.000000
     136        1        1 -114.950000 0.000000 0.000000
     137        1        1 -114.000000 0.000000 0.000000
     138        1        1 -113.050000 0.000000 0.000000
     139        1        1 -112.100000 0.000000 0.000000
     140        1        1 -111.150000 0.000000 0.000000
     141        1        1 -110.200000 0.000000 0.000000
     142        1        1 -109.250000 0.000000 0.000000
     143        1        1 -108.300000 0.000000 0.000000
     144        1        1 -107.350000 0.000000 0.000000
     145        1        1 -106.400000 0.000000 0.000000
     146        1        1 -105.450000 0.000000 0.000000
     147        1        1 -104.500000 0.000000 0.000000
     148        1        1 -103.550000 0.000000 0.000000
     149        1        1 -102.600000 0.000000 0.000000
     150        1        1 -101.650000 0.000000 0.000000
     151        1        1 -100.700000 0.000000 0.000000
     152        1        1 -99.750000 0.000000 0.000000
     153        1        1 -98.800000 0.000000 0.000000
     154        1        1 -97.850000 0.000000 0.000000
     155        1        1 -96.900000 0.000000 0.000000
     156        1        1 -95.950000 0.000000 0.000000
     157        1        1 -95.000000 0.000000 0.000000
     158        1        1 -94.050000 0.000000 0.000000
     159        1        1 -93.100000 0.000000 0.000000
     160        1        1 -92.150000 0.000000 0.000000
     161        1        1 -91.200000 0.000000 0.000000
     162        1        1 -90.250000 0.000000 0.000000
     163        1        1 -89.300000 0.000000 0.000000
     164        1        1 -88.350000 0.000000 0.000000
     165        1        1 -87.400000 0.000000 0.000000
     166        1        1 -86.450000 0.000000 0.000000
     167        1        1 -85.500000 0.000000 0.000000
     168        1        1 -84.550000 0.000000 0.000000
     169        1        1 -83.600000 0.000000 0.000000
     170        1        1 -82.650000 0.000000 0.000000
     171        1        1 -81.700000 0.000000 0.000000
     172        1        1 -80.750000 0.000000 0.000000
     173        1        1 -79.800000 0.000000 0.000000
     174        1        1 -78.850000 0.000000 0.000000
     175        1        1 -77.900000 0.000000 0.000000
     176        1        1 -76.950000 0.000000 0.000000
     177        1        1 -76.000000 0.000000 0.000000
     178        1        1 -75.050000 0.000000 0.000000
     179        1        1 -74.100000 0.000000 0.000000
     180        1        1 -73.150000 0.000000 0.000000
     181        1        1 -72.200000 0.000000 0.000000
     182        1        1 -71.250000 0.000000 0.000000
     183        1        1 -70.300000 0.000000 0.000000
     184        1        1 -69.350000 0.000000 0.000000
     185        1        1 -68.400000 0.000000 0.000000
     186        1        1 -67.450000 0.000000 0.000000
     187        1        1 -66.500000 0.000000 0.000000
     188        1        1 -65.550000 0.000000 0.000000
     189        1        1 -64.600000 0.000000 0.000000
     190        1        1 -63.650000 0.000000 0.000000
     191        1        1 -62.700000 0.000000 0.000000
     192        1        1 -61.750000 0.000000 0.000000
     193        1        1 -60.800000 0.000000 0.000000
     194        1        1 -59.850000 0.000000 0.000000
     195        1        1 -58.900000 0.000000 0.000000
     196        1        1 -57.950000 0.000000 0.000000
     197        1        1 -57.000000 0.000000 0.000000
     198        1        1 -56.050000 0.000000 0.000000
     199        1        1 -55.100000 0.000000 0.000000
     200        1        1 -54.150000 0.000000 0.000000
     201        1        1 -53.200000 0.000000 0.000000
     202        1        1 -52.250000 0.000000 0.000000
     203        1        1 -51.300000 0.000000 0.000000
     204        1        1 -50.350000 0.000000 0.000000
     205        1        1 -49.400000 0.000000 0.000000
     206        1        1 -48.450000 0.000000 0.000000
     207        1        1 -47.500000 0.000000 0.000000
     208        1        1 -46.550000 0.000000 0.000000
     209        1        1 -45.600000 0.000000 0.000000
     210        1        1 -44.650000 0.000000 0.000000
     211        1        1 -43.700000 0.000000 0.000000
     212        1        1 -42.750000 0.000000 0.000000
     213        1        1 -41.800000 0.000000 0.000000
     214        1        1 -40.850000 0.000000 0.000000
     215        1        1 -39.900000 0.000000 0.000000
     216        1        1 -38.950000 0.000000 0.000000
     217        1        1 -38.000000 0.000000 0.000000
     218        1        1 -37.050000 0.000000 0.000000
     219        1        1 -36.100000 0.000000 0.000000
     220        1        1 -35.150000 0.000000 0.000000
     221        1        1 -34.200000 0.000000 0.000000
     222        1        1 -33.250000 0.000000 0.000000
     223        1        1 -32.300000 0.000000 0.000000
     224        1        1 -31.350000 0.000000 0.000000
     225        1        1 -30.400000 0.000000 0.000000
     226        1        1 -29.450000 0.000000 0.000000
     227        1        1 -28.500000 0.000000 0.000000
     228        1        1 -27.550000 0.000000 0.000000
     229        1        1 -26.600000 0.000000 0.000000
     230        1        1 -25.650000 0.000000 0.000000
     231        1        1 -24.700000 0.000000 0.000000
     232        1        1 -23.750000 0.000000 0.000000
     233        1        1 -22.800000 0.000000 0.000000
     234        1        1 -21.850000 0.000000 0.000000
     235        1        1 -20.900000 0.000000 0.000000
     236        1        1 -19.950000 0.000000 0.000000
     237        1        1 -19.000000 0.000000 0.000000
     238        1        1 -18.050000 0.000000 0.000000
     239        1        1 -17.100000 0.000000 0.000000
     240        1        1 -16.150000 0.000000 0.000000
     241        1        1 -15.200000 0.000000 0.000000
     242        1        1 -14.250000 0.000000 0.000000
     243        1        1 -13.300000 0.000000 0.000000
     244        1        1 -12.350000 0.000000 0.000000
     245        1        1 -11.400000 0.000000 0.000000
     246        1        1 -10.450000 0.000000 0.000000
     247        1        1 -9.500000 0.000000 0.000000
     248        1        1 -8.550000 0.000000 0.000000
     249        1        1 -7.600000 0.000000 0.000000
     250        1        1 -6.650000 0.000000 0.000000
     251        1        1 -5.700000 0.000000 0.000000
     252        1        1 -4.750000 0.000000 0.000000
     253        1        1 -3.800000 0.000000 0.000000
     254        1        1 -2.850000 0.000000 0.000000
     255        1        1 -1.900000 0.000000 0.000000
     256        1        1 -0.950000 0.000000 0.000000
     257        1        1 0.000000 0.000000 0.000000
     258        1        1 0.950000 0.000000 0.000000
     259        1        1 1.900000 0.000000 0.000000
     260        1        1 2.850000 0.000000 0.000000
     261        1        1 3.800000 0.000000 0.000000
     262        1        1 4.750000 0.000000 0.000000
     263        1        1 5.700000 0.000000 0.000000
     264        1        1 6.650000 0.000000 0.000000
     265        1        1 7.600000 0.000000 0.000000
     266        1        1 8.550000 0.000000 0.000000
     267        1        1 9.500000 0.000000 0.000000
     268        1        1 10.450000 0.000000 0.000000
     269        1        1 11.400000 0.000000 0.000000
     270        1        1 12.350000 0.000000 0.000000
     271        1        1 13.300000 0.000000 0.000000
     272        1        1 14.250000 0.000000 0.000000
     273        1        1 15.200000 0.000000 0.000000
     274        1        1 16.150000 0.000000 0.000000
     275        1        1 17.100000 0.000000 0.000000
     276        1        1 18.050000 0.000000 0.000000
     277        1        1 19.000000 0.000000 0.000000
     278        1        1 19.950000 0.000000 0.000000
     279        1        1 20.900000 0.000000 0.000000
     280        1        1 21.850000 0.000000 0.000000
     281        1        1 22.800000 0.000000 0.000000
     282        1        1 23.750000 0.000000 0.000000
     283        1        1 24.700000 0.000000 0.000000
     284        1        1 25.650000 0.000000 0.000000
     285        1        1 26.600000 0.000000 0.000000
     286        1        1 27.550000 0.000000 0.000000
     287        1        1 28.500000 0.000000 0.000000
     288        1        1 29.450000 0.000000 0.000000
     289        1        1 30.400000 0.000000 0.000000
     290        1        1 31.350000 0.000000 0.000000
     291        1        1 32.300000 0.000000 0.000000
     292        1        1 33.250000 0.000000 0.000000
     293        1        1 34.200000 0.000000 0.000000
     294        1        1 35.150000 0.000000 0.000000
     295        1        1 36.100000 0.000000 0.000000
     296        1        1 37.050000 0.000000 0.000000
     297        1        1 38.000000 0.000000 0.000000
     298        1        1 38.950000 0.000000 0.000000
     299        1        1 39.900000 0.000000 0.000000
     300        1        1 40.850000 0.000000 0.000000
     301        1        1 41.800000 0.000000 0.000000
     302        1        1 42.750000 0.000000 0.000000
     303        1        1 43.700000 0.000000 0.000000
     304        1        1 44.650000 0.000000 0.000000
     305        1        1 45.600000 0.000000 0.000000
     306        1        1 46.550000 0.000000 0.000000
     307        1        1 47.500000 0.000000 0.000000
     308        1        1 48.450000 0.000000 0.000000
     309        1        1 49.400000 0.000000 0.000000
     310        1        1 50.350000 0.000000 0.000000
     311        1        1 51.300000 0.000000 0.000000
     312        1        1 52.250000 0.000000 0.000000
     313        1        1 53.200000 0.000000 0.000000
     314        1        1 54.150000 0.000000 0.000000
     315        1        1 55.100000 0.000000 0.000000
     316        1        1 56.050000 0.000000 0.000000
     317        1        1 57.000000 0.000000 0.000000
     318        1        1 57.950000 0.000000 0.000000
     319        1        1 58.900000 0.000000 0.000000
     320        1        1 59.850000 0.000000 0.000000
     321        1        1 60.800000 0.000000 0.000000
     322        1        1 61.750000 0.000000 0.000000
     323        1        1 62.700000 0.000000 0.000000
     324        1        1 63.650000 0.000000 0.000000
     325        1        1 64.600000 0.000000 0.000000
     326        1        1 65.550000 0.000000 0.000000
     327        1        1 66.500000 0.000000 0.000000
     328        1        1 67.450000 0.000000 0.000000
     329        1        1 68.400000 0.000000 0.000000
     330        1        1 69.350000 0.000000 0.000000
     331        1        1 70.300000 0.000000 0.000000
     332        1        1 71.250000 0.000000 0.000000
     333        1        1 72.200000 0.000000 0.000000
     334        1        1 73.150000 0.000000 0.000000
     335        1        1 74.100000 0.000000 0.000000
     336        1        1 75.050000 0.000000 0.000000
     337        1        1 76.000000 0.000000 0.000000
     338        1        1 76.950000 0.000000 0.000000
     339        1        1 77.900000 0.000000 0.000000
     340        1        1 78.850000 0.000000 0.000000
     341        1        1 79.800000 0.000000 0.000000
     342        1        1 80.750000 0.000000 0.000000
     343        1        1 81.700000 0.000000 0.000000
     344        1        1 82.650000 0.000000 0.000000
     345        1        1 83.600000 0.000000 0.000000
     346        1        1 84.550000 0.000000 0.000000
     347        1        1 85.500000 0.000000 0.000000
     348        1        1 86.450000 0.000000 0.000000
     349        1        1 87.400000 0.000000 0.000000
     350        1        1 88.350000 0.000000 0.000000
     351        1        1 89.300000 0.000000 0.000000
     352        1        1 90.250000 0.000000 0.000000
     353        1        1 91.200000 0.000000 0.000000
     354        1        1 92.150000 0.000000 0.000000
     355        1        1 93.100000 0.000000 0.000000
     356        1        1 94.050000 0.000000 0.000000
     357        1        1 95.000000 0.000000 0.000000
     358        1        1 95.950000 0.000000 0.000000
     359        1        1 96.900000 0.000000 0.000000
     360        1        1 97.850000 0.000000 0.000000
     361        1        1 98.800000 0.000000 0.000000
     362        1        1 99.750000 0.000000 0.000000
     363        1        1 100.700000 0.000000 0.000000
     364        1        1 101.650000 0.000000 0.000000
     365        1        1 102.600000 0.000000 0.000000
     366        1        1 103.550000 0.000000 0.000000
     367        1        1 104.500000 0.000000 0.000000
     368        1        1 105.450000 0.000000 0.000000
     369        1        1 106.400000 0.000000 0.000000
     370        1        1 107.350000 0.000000 0.000000
     371        1        1 108.300000 0.000000 0.000000
     372        1        1 109.250000 0.000000 0.000000
     373        1        1 110.200000 0.000000 0.000000
     374        1        1 111.150000 0.000000 0.000000
     375        1        1 112.100000 0.000000 0.000000
     376        1        1 113.050000 0.000000 0.000000
     377        1        1 114.000000 0.000000 0.000000
     378        1        1 114.950000 0.000000 0.000000
     379        1        1 115.900000 0.000000 0.000000
     380        1        1 116.850000 0.000000 0.000000
     381        1        1 117.800000 0.000000 0.000000
     382        1        1 118.750000 0.000000 0.000000
     383        1        1 119.700000 0.000000 0.000000
     384        1        1 120.650000 0.000000 0.000000
     385        1        1 121.600000 0.000000 0.000000
     386        1        1 122.550000 0.000000 0.000000
     387        1        1 123.500000 0.000000 0.000000
     388        1        1 124.450000 0.000000 0.000000
     389        1        1 125.400000 0.000000 0.000000
     390        1        1 126.350000 0.000000 0.000000
     391        1        1 127.300000 0.000000 0.000000
     392        1        1 128.250000 0.000000 0.000000
     393        1        1 129.200000 0.000000 0.000000
     394        1        1 130.150000 0.000000 0.000000
     395        1        1 131.100000 0.000000 0.000000
     396        1        1 132.050000 0.000000 0.000000
     397        1        1 133.000000 0.000000 0.000000
     398        1        1 133.950000 0.000000 0.000000
     399        1        1 134.900000 0.000000 0.000000
     400        1        1 135.850000 0.000000 0.000000
     401        1        1 136.800000 0.000000 0.000000
     402        1        1 137.750000 0.000000 0.000000
     403        1        1 138.700000 0.000000 0.000000
     404        1        1 139.650000 0.000000 0.000000
     405        1        1 140.600000 0.000000 0.000000
     406        1        1 141.550000 0.000000 0.000000
     407        1        1 142.500000 0.000000 0.000000
     408        1        1 143.450000 0.000000 0.000000
     409        1        1 144.400000 0.000000 0.000000
     410        1        1 145.350000 0.000000 0.000000
     411        1        1 146.300000 0.000000 0.000000
     412        1        1 147.250000 0.000000 0.000000
     413        1        1 148.200000 0.000000 0.000000
     414        1        1 149.150000 0.000000 0.000000
     415        1        1 150.100000 0.000000 0.000000
     416        1        1 151.050000 0.000000 0.000000
     417        1        1 152.000000 0.000000 0.000000
     418        1        1 152.950000 0.000000 0.000000
     419        1        1 153.900000 0.000000 0.000000
     420        1        1 154.850000 0.000000 0.000000
     421        1        1 155.800000 0.000000 0.000000
     422        1        1 156.750000 0.000000 0.000000
     423        1        1 157.700000 0.000000 0.000000
     424        1        1 158.650000 0.000000 0.000000
     425        1        1 159.600000 0.000000 0.000000
     426        1        1 160.550000 0.000000 0.000000
     427        1        1 161.500000 0.000000 0.000000
     428        1        1 162.450000 0.000000 0.000000
     429        1        1 163.400000 0.000000 0.000000
     430        1        1 164.350000 0.000000 0.000000
     431        1        1 165.300000 0.000000 0.000000
     432        1        1 166.250000 0.000000 0.000000
     433        1        1 167.200000 0.000000 0.000000
     434        1        1 168.150000 0.000000 0.000000
     435        1        1 169.100000 0.000000 0.000000
     436        1        1 170.050000 0.000000 0.000000
     437        1        1 171.000000 0.000000 0.000000
     438        1        1 171.950000 0.000000 0.000000
     439        1        1 172.900000 0.000000 0.000000
     440        1        1 173.850000 0.000000 0.000000
     441        1        1 174.800000 0.000000 0.000000
     442        1        1 175.750000 0.000000 0.000000
     443        1        1 176.700000 0.000000 0.000000
     444        1        1 177.650000 0.000000 0.000000
     445        1        1 178.600000 0.000000 0.000000
     446        1        1 179.550000 0.000000 0.000000
     447        1        1 180.500000 0.000000 0.000000
     448        1        1 181.450000 0.000000 0.000000
     449        1        1 182.400000 0.000000 0.000000
     450        1        1 183.350000 0.000000 0.000000
     451        1        1 184.300000 0.000000 0.000000
     452        1        1 185.250000 0.000000 0.000000
     453        1        1 186.200000 0.000000 0.000000
     454        1        1 187.150000 0.000000 0.000000
     455        1        1 188.100000 0.000000 0.000000
     456        1        1 189.050000 0.000000 0.000000
     457        1        1 190.000000 0.000000 0.000000
     458        1        1 190.950000 0.000000 0.000000
     459        1        1 191.900000 0.000000 0.000000
     460        1        1 192.850000 0.000000 0.000000
     461        1        1 193.800000 0.000000 0.000000
     462        1        1 194.750000 0.000000 0.000000
     463        1        1 195.700000 0.000000 0.000000
     464        1        1 196.650000 0.000000 0.000000
     465        1        1 197.600000 0.000000 0.000000
     466        1        1 198.550000 0.000000 0.000000
     467        1        1 199.500000 0.000000 0.000000
     468        1        1 200.450000 0.000000 0.000000
     469        1        1 201.400000 0.000000 0.000000
     470        1        1 202.350000 0.000000 0.000000
     471        1        1 203.300000 0.000000 0.000000
     472        1        1 204.250000 0.000000 0.000000
     473        1        1 205.200000 0.000000 0.000000
     474        1        1 206.150000 0.000000 0.000000
     475        1        1 207.100000 0.000000 0.000000
     476        1        1 208.050000 0.000000 0.000000
     477        1        1 209.000000 0.000000 0.000000
     478        1        1 209.950000 0.000000 0.000000
     479        1        1 210.900000 0.000000 0.000000
     480        1        1 211.850000 0.000000 0.000000
     481        1        1 212.800000 0.000000 0.000000
     482        1        1 213.750000 0.000000 0.000000
     483        1        1 214.700000 0.000000 0.000000
     484        1        1 215.650000 0.000000 0.000000
     485        1        1 216.600000 0.000000 0.000000
     486        1        1 217.550000 0.000000 0.000000
     487        1        1 218.500000 0.000000 0.000000
     488        1        1 219.450000 0.000000 0.000000
     489        1        1 220.400000 0.000000 0.000000
     490        1        1 221.350000 0.000000 0.000000
     491        1        1 222.300000 0.000000 0.000000
     492        1        1 223.250000 0.000000 0.000000
     493        1        1 224.200000 0.000000 0.000000
     494        1        1 225.150000 0.000000 0.000000
     495        1        1 226.100000 0.000000 0.000000
     496        1        1 227.050000 0.000000 0.000000
     497        1        1 228.000000 0.000000 0.000000
     498        1        1 228.950000 0.000000 0.000000
     499        1        1 229.900000 0.000000 0.000000
     500        1        1 230.850000 0.000000 0.000000
     501        1        1 231.800000 0.000000 0.000000
     502        1        1 232.750000 0.000000 0.000000
     503        1        1 233.700000 0.000000 0.000000
     504        1        1 234.650000 0.000000 0.000000
     505        1        1 235.600000 0.000000 0.000000
     506        1        1 236.550000 0.000000 0.000000
     507        1        1 237.500000 0.000000 0.000000
     508        1        1 238.450000 0.000000 0.000000
     509        1        1 239.400000 0.000000 0.000000
     510        1        1 240.350000 0.000000 0.000000
     511        1        1 241.300000 0.000000 0.000000
     512        1        1 242.250000 0.000000 0.000000

 Bonds

       1        1        1        2
       2        1        2        3
       3        1        3        4
       4        1        4        5
       5        1        5        6
       6        1        6        7
       7        1        7        8
       8        1        8        9
       9        1        9       10
      10        1       10       11
      11        1       11       12
      12        1       12       13
      13        1       13       14
      14        1       14       15
      15        1       15       16
      16        1       16       17
      17        1       17       18
      18        1       18       19
      19        1       19       20
      20        1       20       21
      21        1       21       22
      22        1       22       23
      23        1       23       24
      24        1       24       25
      25        1       25       26
      26        1       26       27
      27        1       27       28
      28        1       28       29