ITEM: TIMESTEP
2600000
ITEM: NUMBER OF ATOMS
512
ITEM: BOX BOUNDS mm mm mm
-2.5600000000000000e+02 2.5600000000000000e+02
-2.5600000000000000e+02 2.5600000000000000e+02
-2.5600000000000000e+02 2.5600000000000000e+02
ITEM: ATOMS id type x y z
1 1 -104.008 -22.7293 4.02858
2 1 -103.642 -21.9433 3.63702
3 1 -103.229 -21.2276 3.10642
4 1 -102.829 -20.6775 2.4856
5 1 -102.498 -20.2405 1.73213
6 1 -102.171 -19.5614 1.15463
7 1 -101.738 -18.9168 0.680723
8 1 -101.291 -18.1176 0.425403
9 1 -101.06 -17.2408 0.0768821
10 1 -101.137 -16.3335 -0.042345
11 1 -101.099 -15.397 0.0843842
12 1 -100.835 -14.5474 0.370267
13 1 -100.257 -13.8594 0.632114
14 1 -99.5709 -13.259 0.955386
15 1 -98.8936 -12.7335 1.26329
16 1 -98.1786 -12.1997 1.57058
17 1 -97.3 -11.9232 1.7164
18 1 -96.4237 -11.7987 1.88694
19 1 -95.5555 -11.6612 2.22847
20 1 -94.7497 -11.5465 2.66571
21 1 -93.9145 -11.319 3.05996
22 1 -92.9733 -11.2204 3.23786
23 1 -92.13 -11.2798 3.66867
24 1 -91.3762 -11.2902 4.25595
25 1 -90.8703 -11.1753 5.04498
26 1 -90.5342 -10.861 5.851
27 1 -90.2936 -10.3494 6.5679
28 1 -90.007 -9.75489 7.17602
29 1 -89.9382 -9.03717 7.80107
30 1 -89.9863 -8.36028 8.47195
31 1 -90.2627 -7.73847 9.15614
32 1 -90.4867 -6.93907 9.6179
33 1 -90.7008 -6.2171 10.1454
34 1 -90.9696 -5.58741 10.7418
35 1 -91.1499 -4.89233 11.3982
36 1 -91.17 -4.27168 12.0937
37 1 -91.1221 -3.72555 12.8386
38 1 -90.8411 -3.29072 13.5946
39 1 -90.3619 -2.91103 14.3818
40 1 -90.0339 -2.33031 15.1151
41 1 -89.753 -1.69282 15.7592
42 1 -89.8144 -1.00312 16.4303
43 1 -89.7309 -0.232471 17.0272
44 1 -89.6133 0.615163 17.3781
45 1 -89.4062 1.49168 17.595
46 1 -89.1547 2.43863 17.6502
47 1 -89.2057 3.35874 17.4788
48 1 -89.3295 4.2371 17.6618
49 1 -89.8426 4.94179 17.5471
50 1 -90.3867 5.7041 17.3877
51 1 -90.8498 6.48082 17.3839
52 1 -91.0881 7.37767 17.6131
53 1 -91.2709 8.29271 17.7517
54 1 -91.307 9.27588 17.639
55 1 -91.3677 10.1903 17.5512
56 1 -91.2137 11.0869 17.3345
57 1 -91.2356 12.0324 17.179
58 1 -90.8904 12.8697 16.8306
59 1 -90.4443 13.6197 16.4442
60 1 -90.0166 14.335 16.0429
61 1 -89.7103 14.866 15.3988
62 1 -89.2255 15.4212 14.7903
63 1 -88.7793 15.9131 14.0907
64 1 -88.1335 16.3861 13.5605
65 1 -87.5646 16.9078 12.9421
66 1 -86.8061 17.2116 12.4632
67 1 -85.9046 17.3893 12.0845
68 1 -85.1708 17.8513 11.6664
69 1 -84.5059 18.4887 11.4674
70 1 -83.6569 18.7526 11.0925
71 1 -82.7431 18.9374 10.9056
72 1 -81.8443 19.2998 10.7896
73 1 -81.064 19.7987 10.8011
74 1 -80.322 20.3753 10.8697
75 1 -79.6513 21.0464 11.0876
76 1 -79.0465 21.7373 11.1737
77 1 -78.3268 22.2692 11.4073
78 1 -77.5787 22.7949 11.4886
79 1 -76.7982 23.3531 11.5606
80 1 -76.1667 23.8796 11.9313
81 1 -75.5125 24.4341 12.2815
82 1 -74.9163 25.0609 12.6271
83 1 -74.3347 25.6798 12.9452
84 1 -73.6288 26.2299 13.1274
85 1 -72.8869 26.7981 13.3823
86 1 -72.0102 27.1843 13.6506
87 1 -71.1554 27.4323 13.8826
88 1 -70.3359 27.8331 14.1541
89 1 -69.6066 28.3018 14.6028
90 1 -68.8314 28.7118 14.9965
91 1 -68.1699 29.1995 15.4295
92 1 -67.4038 29.4754 15.8183
93 1 -66.5784 29.5206 16.2046
94 1 -65.7502 29.1971 16.5276
95 1 -65.0622 28.6429 16.8385
96 1 -64.4312 28.026 17.2001
97 1 -63.5673 27.7406 17.5306
98 1 -62.6868 27.7782 17.8803
99 1 -61.8359 27.8555 18.2289
100 1 -61.0886 27.5964 18.7232
101 1 -60.1918 27.305 19.1746
102 1 -59.3735 26.9871 19.5053
103 1 -58.6133 26.6528 19.8356
104 1 -57.7368 26.3948 20.0243
105 1 -56.8198 26.2083 20.1154
106 1 -56.0743 25.7862 19.8119
107 1 -55.1641 25.5413 19.5822
108 1 -54.2776 25.4337 19.2597
109 1 -53.3285 25.2949 19.1957
110 1 -52.5547 24.8725 18.7866
111 1 -51.6542 24.6668 18.4903
112 1 -50.6664 24.7822 18.4617
113 1 -49.7224 24.6582 18.3022
114 1 -48.7763 24.6261 18.2536
115 1 -47.9014 24.4921 18.1511
116 1 -46.9459 24.3918 18.3601
117 1 -46.106 24.1606 18.7603
118 1 -45.342 23.9428 19.1682
119 1 -44.497 23.7 19.5298
120 1 -43.6773 23.243 19.7302
121 1 -42.9649 22.7087 19.8987
122 1 -42.1494 22.2105 20.0139
123 1 -41.2689 21.9233 19.9127
124 1 -40.3518 21.7258 19.743
125 1 -39.4345 21.6204 19.5807
126 1 -38.583 21.8919 19.3469
127 1 -37.6376 21.9189 19.2288
128 1 -36.7472 22.046 19.101
129 1 -35.8116 21.9056 18.9824
130 1 -35.0024 21.5237 19.0663
131 1 -34.1081 21.1668 19.2708
132 1 -33.4379 20.5336 19.4556
133 1 -32.6451 20.1169 19.7189
134 1 -31.8248 19.6491 19.8478
135 1 -30.9946 19.4852 20.1555
136 1 -30.1335 19.4659 20.5732
137 1 -29.3629 19.4134 21.0858
138 1 -28.5122 19.3219 21.4979
139 1 -27.6271 18.9643 21.7044
140 1 -26.7351 18.6588 22.0291
141 1 -26.1452 18.0945 22.4691
142 1 -25.6445 17.478 22.9634
143 1 -25.244 16.6777 23.3243
144 1 -24.7436 15.9124 23.3262
145 1 -24.1465 15.1833 23.2063
146 1 -23.5532 14.4388 22.8509
147 1 -23.1066 13.6764 22.6313
148 1 -22.8473 12.8748 22.1139
149 1 -22.573 12.0701 21.8629
150 1 -22.1987 11.2073 21.6535
151 1 -21.6453 10.443 21.4201
152 1 -21.0686 9.77724 21.0562
153 1 -20.7367 8.98175 20.7477
154 1 -20.609 8.0962 20.5096
155 1 -20.5064 7.18462 20.2813
156 1 -20.2252 6.29883 20.034
157 1 -20.0614 5.36094 19.9471
158 1 -20.0965 4.44847 19.9374
159 1 -20.0351 3.56052 19.5062
160 1 -19.9812 2.81358 18.9274
161 1 -20.1256 2.07279 18.2855
162 1 -20.387 1.41562 17.6433
163 1 -20.4416 0.684512 16.9845
164 1 -20.443 0.11388 16.2407
165 1 -20.5466 -0.593943 15.5404
166 1 -20.6099 -1.19906 14.8986
167 1 -20.5474 -1.94378 14.2541
168 1 -20.1756 -2.74844 13.8953
169 1 -19.658 -3.50743 13.6715
170 1 -19.0522 -4.17438 13.3673
171 1 -18.5807 -4.97535 13.1134
172 1 -18.2443 -5.80478 12.7899
173 1 -17.9067 -6.69111 12.7213
174 1 -17.5547 -7.50256 12.8742
175 1 -17.2059 -8.39713 12.877
176 1 -16.7769 -9.16905 13.0897
177 1 -16.0753 -9.72507 13.2788
178 1 -15.3201 -10.2759 13.4036
179 1 -14.6144 -10.9009 13.2518
180 1 -13.7649 -11.3245 13.1698
181 1 -12.9015 -11.6718 12.9017
182 1 -12.113 -11.8597 12.5232
183 1 -11.2548 -12.0841 12.2485
184 1 -10.3546 -12.3196 12.1407
185 1 -9.44721 -12.6372 12.1163
186 1 -8.60148 -12.8672 11.774
187 1 -7.77322 -13.0476 11.375
188 1 -6.92688 -12.9374 10.8557
189 1 -6.05363 -12.9409 10.4827
190 1 -5.12797 -12.9279 10.3312
191 1 -4.26968 -13.0292 9.94387
192 1 -3.34639 -12.9828 9.68226
193 1 -2.53826 -12.6475 9.38645
194 1 -1.90312 -12.3536 8.79288
195 1 -1.27758 -11.9266 8.29538
196 1 -0.895122 -11.4175 7.61723
197 1 -0.486072 -10.8852 6.98133
198 1 0.225916 -10.6349 6.51474
199 1 0.803805 -10.1787 5.85942
200 1 1.37391 -9.68307 5.21383
201 1 2.12656 -9.28495 4.75233
202 1 2.62663 -8.97943 4.01438
203 1 3.11539 -8.62003 3.30674
204 1 3.57911 -8.28255 2.56944
205 1 4.03437 -8.05187 1.72158
206 1 4.32564 -7.67916 0.915271
207 1 4.20687 -7.14888 0.127312
208 1 4.24617 -6.8263 -0.759792
209 1 4.2784 -6.32124 -1.52194
210 1 4.46087 -5.93109 -2.35332
211 1 4.43141 -6.04208 -3.30122
212 1 4.43087 -6.14861 -4.22882
213 1 4.40042 -5.87489 -5.188
214 1 4.54519 -5.26584 -5.93006
215 1 4.5761 -4.55418 -6.58411
216 1 4.49299 -3.98552 -7.29111
217 1 4.69819 -3.4132 -7.99717
218 1 5.19314 -2.69647 -8.44168
219 1 5.54644 -1.84708 -8.60353
220 1 5.65303 -0.904412 -8.71229
221 1 5.83274 -0.0125921 -8.69742
222 1 6.16107 0.903838 -8.72284
223 1 6.43486 1.76798 -8.73933
224 1 6.52193 2.63022 -8.51793
225 1 6.76926 3.44651 -8.21684
226 1 6.76302 4.29775 -7.93481
227 1 6.76849 5.12239 -7.52502
228 1 7.21084 5.91809 -7.2118
229 1 7.61294 6.75822 -6.96325
230 1 8.02981 7.43957 -6.56244
231 1 8.2566 8.25862 -6.12902
232 1 8.54089 9.01233 -5.60446
233 1 8.72561 9.81592 -5.12725
234 1 9.04466 10.5432 -4.79231
235 1 9.3837 11.3778 -4.56083
236 1 9.62321 12.2659 -4.47225
237 1 10.029 13.1356 -4.31382
238 1 10.4196 13.9546 -4.07933
239 1 10.6424 14.8804 -3.84804
240 1 10.7221 15.8583 -3.86784
241 1 10.5783 16.7418 -4.07662
242 1 10.3678 17.6022 -4.37424
243 1 10.0704 18.3787 -4.76957
244 1 9.64259 19.2169 -5.13512
245 1 9.31181 20.0393 -5.36693
246 1 9.00105 20.8784 -5.58479
247 1 8.52541 21.6527 -5.66271
248 1 8.09341 22.5035 -5.6248
249 1 7.53358 23.249 -5.52502
250 1 7.25803 24.0979 -5.29098
251 1 6.64892 24.7859 -5.14311
252 1 5.99054 25.5048 -4.99903
253 1 5.62671 26.2753 -4.55756
254 1 5.34668 27.0158 -4.09484
255 1 5.37586 27.7806 -3.58193
256 1 5.31282 28.437 -2.92766
257 1 5.13097 29.2247 -2.47688
258 1 4.94995 30.0579 -1.9844
259 1 4.86004 30.7878 -1.40307
260 1 4.7736 31.485 -0.745609
261 1 4.75854 32.1281 -0.00427323
262 1 4.91926 32.693 0.698954
263 1 5.02164 33.2591 1.43622
264 1 5.05947 33.9733 2.10573
265 1 5.19702 34.4382 2.92184
266 1 5.47817 34.7445 3.83205
267 1 6.01051 34.9298 4.58075
268 1 6.47626 34.7197 5.41221
269 1 6.8884 34.5193 6.19395
270 1 7.31288 33.955 6.85655
271 1 7.37254 33.3541 7.63816
272 1 7.35378 32.8003 8.42286
273 1 7.08641 32.1708 9.0844
274 1 6.8532 31.4855 9.64647
275 1 6.67887 30.6732 10.1871
276 1 6.49246 29.9127 10.746
277 1 6.48453 29.1488 11.2588
278 1 6.52957 28.264 11.6308
279 1 6.64785 27.3508 11.9356
280 1 6.87624 26.4559 12.3621
281 1 7.10913 25.573 12.6526
282 1 7.40598 24.767 13.0472
283 1 7.73113 23.8288 13.3236
284 1 8.00107 22.9569 13.3064
285 1 8.46136 22.1669 13.5533
286 1 9.21496 21.6339 13.8545
287 1 10.0188 21.0644 13.9488
288 1 10.5525 20.2831 14.0408
289 1 11.1315 19.5717 14.2318
290 1 11.66 18.7953 14.3878
291 1 12.0374 17.884 14.4463
292 1 12.2334 17.0372 14.1913
293 1 12.418 16.1646 13.881
294 1 12.56 15.276 13.4912
295 1 12.5684 14.42 13.0437
296 1 12.4433 13.683 12.5137
297 1 12.5153 12.8129 12.2307
298 1 12.4362 11.9272 11.8684
299 1 12.5658 11.2303 11.2557
300 1 12.9555 10.5481 10.7189
301 1 13.4259 9.92061 10.1913
302 1 14.0456 9.29683 9.8514
303 1 14.7601 8.74942 9.67336
304 1 15.4342 8.16741 9.58806
305 1 16.1162 7.44769 9.54518
306 1 16.9942 7.22993 9.82881
307 1 17.8597 6.99843 10.117
308 1 18.5822 6.64409 10.5942
309 1 19.3589 6.48084 11.0946
310 1 20.081 6.26435 11.6074
311 1 20.7435 5.87991 12.1231
312 1 21.4718 5.93521 12.7108
313 1 22.3134 6.05805 13.0766
314 1 23.2483 6.08166 13.2882
315 1 24.1338 6.06445 13.5217
316 1 25.0192 6.20707 13.8269
317 1 25.878 6.19112 14.1707
318 1 26.7058 6.18681 14.5718
319 1 27.6226 5.93975 14.904
320 1 28.4686 5.63043 15.0706
321 1 29.2841 5.30145 15.307
322 1 30.1305 4.97137 15.5744
323 1 30.9174 5.08003 16.0464
324 1 31.6932 5.26756 16.4897
325 1 32.5946 5.11011 16.918
326 1 33.3904 4.71253 17.1605
327 1 34.1611 4.32395 17.4139
328 1 34.9879 4.15462 17.7387
329 1 35.8793 4.07265 18.0482
330 1 36.8657 3.95751 18.1519
331 1 37.7928 3.93753 18.0517
332 1 38.6827 4.21843 17.76
333 1 39.4339 4.62475 17.3871
334 1 40.1364 4.84489 16.7991
335 1 40.8215 5.2236 16.3302
336 1 41.5734 5.6451 16.0054
337 1 42.3542 6.17331 15.747
338 1 43.0468 6.69417 15.3687
339 1 43.565 6.97618 14.6508
340 1 43.9547 7.18405 13.8277
341 1 44.3661 7.31458 13.0363
342 1 44.8682 7.46587 12.1967
343 1 45.2441 7.68667 11.3587
344 1 45.508 7.77342 10.4704
345 1 45.8573 7.83585 9.52118
346 1 46.2182 7.9187 8.64343
347 1 46.5063 7.87116 7.71292
348 1 47.0395 7.94648 6.89525
349 1 47.6263 7.95937 6.13742
350 1 48.3038 7.93195 5.33763
351 1 48.8394 7.69636 4.49418
352 1 49.2119 7.77242 3.65406
353 1 49.6628 7.9624 2.83927
354 1 50.2016 8.29234 2.17491
355 1 50.8459 8.57135 1.44609
356 1 51.4924 8.93058 0.841947
357 1 52.2519 9.37545 0.532686
358 1 52.8856 9.92331 0.204775
359 1 53.719 10.3619 -0.121609
360 1 54.4571 10.7174 -0.510012
361 1 55.125 11.1111 -1.03638
362 1 55.7984 11.6234 -1.47392
363 1 56.1258 12.2353 -2.0713
364 1 56.3558 12.9427 -2.61323
365 1 56.6223 13.6188 -3.21106
366 1 56.9327 14.3469 -3.72086
367 1 57.2245 15.1785 -4.15489
368 1 57.2045 15.8424 -4.82529
369 1 57.2872 16.5501 -5.43913
370 1 57.2582 17.1651 -6.12491
371 1 57.2295 17.862 -6.86877
372 1 56.9599 18.6269 -7.37946
373 1 56.9479 19.3426 -8.10744
374 1 56.9087 20.0124 -8.77091
375 1 56.9815 20.7549 -9.39006
376 1 56.9448 21.4728 -10.0073
377 1 57.0238 22.2738 -10.6089
378 1 57.149 23.0368 -11.0998
379 1 57.2604 23.9593 -11.1624
380 1 57.4097 24.8856 -11.3021
381 1 57.5141 25.8093 -11.3346
382 1 57.787 26.7004 -11.3857
383 1 58.0176 27.6494 -11.2832
384 1 58.3124 28.5411 -11.1796
385 1 58.9138 29.2236 -10.9707
386 1 59.5527 29.8063 -10.6529
387 1 60.1172 30.5116 -10.3809
388 1 60.6943 31.2077 -10.1756
389 1 61.4436 31.8274 -10.1474
390 1 62.2398 32.3004 -10.0603
391 1 63.0961 32.7911 -10.1997
392 1 63.9251 33.2139 -9.88741
393 1 64.5616 33.6839 -9.27556
394 1 65.009 34.2593 -8.67688
395 1 65.5778 34.9164 -8.38142
396 1 65.9384 35.7308 -8.03973
397 1 66.3338 36.5647 -7.84189
398 1 66.918 37.2817 -7.80574
399 1 67.6904 37.7522 -7.65987
400 1 68.2955 38.508 -7.49588
401 1 68.7959 39.2707 -7.73124
402 1 69.0155 40.1822 -7.99773
403 1 69.0367 40.9733 -8.57595
404 1 69.1832 41.7179 -9.06314
405 1 69.3919 42.3846 -9.76989
406 1 69.0824 43.0509 -10.469
407 1 68.7432 43.8713 -10.9324
408 1 68.5679 44.8161 -11.0945
409 1 68.325 45.7144 -11.0034
410 1 68.2331 46.6167 -10.7205
411 1 68.344 47.5473 -10.461
412 1 68.5958 48.4024 -10.2242
413 1 68.737 49.317 -10.2789
414 1 68.8727 50.255 -10.2684
415 1 69.2484 51.1436 -10.1414
416 1 69.8325 51.8473 -10.1292
417 1 70.2709 52.7054 -9.98772
418 1 70.8453 53.3805 -9.83499
419 1 71.5312 53.9868 -9.92668
420 1 72.2222 54.5941 -10.0592
421 1 72.9123 55.1695 -10.3798
422 1 73.4041 55.8569 -10.6978
423 1 74.036 56.4823 -11.0664
424 1 74.6076 56.8001 -11.6996
425 1 75.034 57.1087 -12.4874
426 1 75.2214 57.6504 -13.2375
427 1 75.7148 58.1548 -13.8176
428 1 76.2225 58.6702 -14.3878
429 1 76.8292 58.9019 -15.0744
430 1 77.1402 59.317 -15.8636
431 1 77.728 59.5216 -16.578
432 1 78.4216 59.7229 -17.0835
433 1 78.9819 59.9933 -17.7533
434 1 79.6658 60.1689 -18.4558
435 1 80.0611 60.3775 -19.3401
436 1 80.7355 60.5055 -20.0629
437 1 81.4413 60.3832 -20.6565
438 1 82.2558 60.2956 -21.1547
439 1 83.028 60.2924 -21.6519
440 1 83.859 60.303 -21.9916
441 1 84.7152 60.2063 -22.3932
442 1 85.6119 60.0953 -22.598
443 1 86.4857 59.8522 -22.8601
444 1 87.3068 59.8017 -23.3277
445 1 88.1776 59.6781 -23.6136
446 1 89.0138 59.5887 -24.0441
447 1 89.8196 59.2692 -24.2874
448 1 90.5448 58.9095 -24.7213
449 1 91.3243 58.5979 -25.0263
450 1 92.1265 58.5146 -25.4659
451 1 92.6534 58.3084 -26.2009
452 1 93.2738 58.0495 -26.9054
453 1 93.8617 57.7021 -27.6248
454 1 94.362 57.3952 -28.3927
455 1 94.7717 56.9813 -29.0564
456 1 94.9102 56.5279 -29.8454
457 1 94.9168 55.9242 -30.5194
458 1 94.8808 55.182 -31.0814
459 1 94.6549 54.3563 -31.4246
460 1 94.2307 53.7114 -31.9421
461 1 94.013 53.0929 -32.6393
462 1 93.7715 52.5896 -33.354
463 1 93.1959 52.3615 -34.0275
464 1 92.4901 52.2441 -34.5982
465 1 91.892 52.2506 -35.3376
466 1 91.1619 52.4629 -35.8234
467 1 90.2122 52.5344 -36.1768
468 1 89.3623 52.5018 -36.5258
469 1 88.6313 52.4847 -37.0964
470 1 87.7536 52.4212 -37.547
471 1 86.9238 52.0671 -37.8718
472 1 86.2626 51.4052 -38.2017
473 1 85.5097 50.812 -38.2563
474 1 84.708 50.3424 -38.3581
475 1 83.8769 49.8501 -38.5132
476 1 82.9806 49.4963 -38.5393
477 1 82.0826 49.3691 -38.6768
478 1 81.1418 49.2677 -38.859
479 1 80.2987 48.9103 -38.8355
480 1 79.5231 48.4273 -38.6871
481 1 79.0432 47.6466 -38.5451
482 1 78.5705 46.8379 -38.3747
483 1 77.9252 46.144 -38.3334
484 1 77.1485 45.6692 -38.1817
485 1 76.4752 45.0961 -37.8742
486 1 75.911 44.4317 -37.4678
487 1 75.1998 44.0074 -36.9851
488 1 74.4691 43.5538 -36.4326
489 1 73.8652 43.143 -35.9062
490 1 73.2516 42.7445 -35.2864
491 1 72.6752 42.5493 -34.5452
492 1 72.0784 42.3737 -33.8208
493 1 71.4357 42.1234 -33.2106
494 1 70.8107 41.9304 -32.5503
495 1 70.3412 41.6862 -31.7629
496 1 69.7633 41.3814 -30.9834
497 1 69.3382 41.1143 -30.1655
498 1 69.0338 41.023 -29.3134
499 1 68.8085 41.1088 -28.4228
500 1 68.7628 40.9583 -27.5067
501 1 68.9174 40.729 -26.6044
502 1 68.9144 40.7972 -25.5977
503 1 69.0337 40.761 -24.6562
504 1 68.9467 40.8329 -23.7234
505 1 68.8541 41.1936 -22.7611
506 1 68.6436 41.4796 -21.916
507 1 68.1647 41.5041 -21.0677
508 1 67.548 41.5547 -20.3559
509 1 66.8237 41.7312 -19.8087
510 1 66.1475 41.6061 -19.1578
511 1 65.5296 41.299 -18.5233
512 1 64.735 40.9886 -18.1509
ITEM: TIMESTEP
2610000
ITEM: NUMBER OF ATOMS
512
ITEM: BOX BOUNDS mm mm mm
-2.5600000000000000e+02 2.5600000000000000e+02
-2.5600000000000000e+02 2.5600000000000000e+02
-2.5600000000000000e+02 2.5600000000000000e+02
ITEM: ATOMS id type x y z
1 1 -106.938 -24.4996 -0.053684
2 1 -106.277 -24.0224 -0.391208
3 1 -105.394 -23.6113 -0.518984
4 1 -104.538 -23.209 -0.631716
5 1 -103.839 -22.619 -0.794149
6 1 -103.093 -22.0985 -0.854412
7 1 -102.324 -21.5786 -1.08336
8 1 -101.518 -21.2064 -1.13087
9 1 -100.661 -20.8521 -1.31513
10 1 -99.8335 -20.4363 -1.40381
11 1 -99.0082 -20.0333 -1.22479
12 1 -98.2563 -19.5042 -0.930391
13 1 -97.4751 -18.9064 -0.612917
14 1 -96.8857 -18.1892 -0.30256
15 1 -96.4725 -17.623 0.300296
16 1 -96.0075 -16.881 0.687923
17 1 -95.5622 -16.3457 1.27007
18 1 -95.1562 -15.5852 1.6504
19 1 -94.7927 -15.0074 2.26575
20 1 -94.1858 -14.3649 2.70503
21 1 -93.6261 -13.7449 3.08534
22 1 -93.1364 -13.059 3.50026
23 1 -92.6265 -12.3713 3.92802
24 1 -92.1436 -11.6818 4.34762
25 1 -91.7485 -11.1611 5.06571
26 1 -91.293 -10.7989 5.78767
27 1 -90.9507 -10.2723 6.45595
28 1 -90.56 -9.67133 7.06094
29 1 -90.2994 -8.88658 7.47592
30 1 -90.1098 -8.20853 8.14195
31 1 -89.7895 -7.54151 8.69585
32 1 -89.456 -6.88413 9.3224
33 1 -89.08 -6.22918 9.9381
34 1 -88.6903 -5.48622 10.4168
35 1 -88.4533 -4.75908 10.8806
36 1 -88.273 -3.89536 11.1552
37 1 -88.1303 -3.03912 11.4757
38 1 -88.1626 -2.13816 11.8177
39 1 -87.9165 -1.27941 11.7672
40 1 -87.9578 -0.351105 11.9728
41 1 -88.2942 0.585519 12.1289
42 1 -88.7814 1.31078 12.3066
43 1 -89.0897 2.20357 12.4237
44 1 -89.4598 3.09227 12.4743
45 1 -89.5733 4.09315 12.7031
46 1 -89.9949 4.89847 12.9111
47 1 -90.4235 5.7666 13.1923
48 1 -90.7976 6.59638 13.3191
49 1 -91.1068 7.456 13.575
50 1 -91.392 8.35344 13.6975
51 1 -91.778 9.20431 13.8143
52 1 -92.0068 10.1284 13.9063
53 1 -91.8875 11.0845 13.9308
54 1 -91.6443 11.9299 14.2795
55 1 -91.1603 12.7194 14.511
56 1 -90.9101 13.5394 14.8349
57 1 -90.566 14.3214 15.3247
58 1 -90.358 15.1346 15.6849
59 1 -90.6145 16.1099 15.6905
60 1 -90.6909 17.0124 15.388
61 1 -90.5777 17.8711 14.9716
62 1 -90.4588 18.7521 14.7771
63 1 -90.2782 19.5226 14.1979
64 1 -89.7524 20.0774 13.6514
65 1 -89.2185 20.6589 13.1655
66 1 -88.4542 21.1298 12.8308
67 1 -87.6542 21.4352 12.33
68 1 -86.811 21.7013 12.0284
69 1 -85.9553 22.1395 11.9644
70 1 -85.1192 22.5452 12.0329
71 1 -84.2805 22.738 12.4784
72 1 -83.5673 22.8394 13.1077
73 1 -82.8352 23.0205 13.6788
74 1 -82.0763 23.0902 14.1719
75 1 -81.4004 23.3385 14.8295
76 1 -80.7056 23.5938 15.4125
77 1 -80.0662 23.8486 15.9756
78 1 -79.3504 24.1659 16.5366
79 1 -78.5855 24.4476 16.991
80 1 -77.9466 24.7123 17.6102
81 1 -77.1823 24.8859 18.1527
82 1 -76.3052 24.8908 18.5699
83 1 -75.4941 24.5951 18.8162
84 1 -74.6447 24.2395 19.0431
85 1 -73.8304 23.84 19.2052
86 1 -72.8869 23.6657 19.3838
87 1 -71.9858 23.4669 19.4924
88 1 -71.0698 23.3148 19.6135
89 1 -70.1506 23.13 19.5452
90 1 -69.237 23.0502 19.7867
91 1 -68.27 23.0823 19.7868
92 1 -67.2817 23.026 19.9675
93 1 -66.4514 23.1421 20.4702
94 1 -65.6129 23.4972 20.6814
95 1 -64.7547 23.7777 20.9395
96 1 -63.8457 23.9656 21.2281
97 1 -62.934 24.059 21.2162
98 1 -62.1026 24.4937 21.3079
99 1 -61.3268 24.9171 21.5527
100 1 -60.5424 25.2018 22.0075
101 1 -59.8645 25.7813 22.3823
102 1 -58.9795 26.1385 22.5741
103 1 -58.0946 26.3721 22.9632
104 1 -57.1496 26.427 23.0622
105 1 -56.2274 26.1865 23.1625
106 1 -55.3087 26.2968 23.0527
107 1 -54.3226 26.2448 23.041
108 1 -53.3676 26.4118 22.9629
109 1 -52.4403 26.4856 23.2219
110 1 -51.565 26.4815 23.3967
111 1 -50.6085 26.52 23.4051
112 1 -49.6324 26.5375 23.2394
113 1 -48.8576 26.5635 22.7827
114 1 -48.111 26.5964 22.2043
115 1 -47.3819 26.4088 21.633
116 1 -46.7825 26.0718 21.0461
117 1 -46.0761 25.8109 20.4949
118 1 -45.5207 25.3056 19.9293
119 1 -44.8441 24.7577 19.3956
120 1 -44.194 24.4463 18.8201
121 1 -43.4219 24.0496 18.4233
122 1 -42.7863 23.5999 17.9978
123 1 -42.1756 23.2816 17.3311
124 1 -41.3959 22.9783 16.932
125 1 -40.5108 22.7297 16.7437
126 1 -39.6335 22.5275 16.5013
127 1 -38.7808 22.2649 16.2073
128 1 -37.9132 21.8855 16.0637
129 1 -37.0728 21.4644 16.0302
130 1 -36.2273 21.1208 15.9362
131 1 -35.4323 20.6425 15.9001
132 1 -34.67 20.1473 15.8224
133 1 -33.7926 19.7246 15.6
134 1 -32.9742 19.2883 15.4797
135 1 -32.0518 18.9707 15.5495
136 1 -31.167 18.5517 15.5867
137 1 -30.2826 18.3823 15.9305
138 1 -29.4499 17.9157 16.3178
139 1 -28.7726 17.4313 16.7412
140 1 -27.9364 17.1595 17.1244
141 1 -27.0795 17.3303 17.487
142 1 -26.1831 17.3195 17.464
143 1 -25.3694 17.2339 17.1324
144 1 -24.4453 17.3509 17.0193
145 1 -23.4979 17.4192 16.886
146 1 -22.5921 17.1788 16.879
147 1 -21.7059 16.8104 16.8197
148 1 -20.9724 16.1913 16.6395
149 1 -20.2469 15.6292 16.8329
150 1 -19.4921 15.034 17.018
151 1 -18.8102 14.3269 17.1732
152 1 -18.2049 13.6193 17.0717
153 1 -17.5341 12.9646 16.9518
154 1 -16.751 12.3462 16.7865
155 1 -16.2252 11.5415 16.6403
156 1 -15.862 10.7383 16.955
157 1 -15.53 9.89235 16.7985
158 1 -15.4515 8.99663 16.8021
159 1 -15.4648 8.06221 16.8057
160 1 -15.5877 7.17776 16.8586
161 1 -15.7341 6.21766 16.6374
162 1 -16.0451 5.4103 16.57
163 1 -16.4277 4.65757 16.2469
164 1 -16.9531 3.87576 16.0907
165 1 -17.4476 3.12376 15.7514
166 1 -17.7458 2.39782 15.2736
167 1 -17.9885 1.50724 15.033
168 1 -18.4095 0.653843 14.8565
169 1 -18.7324 -0.210179 14.7724
170 1 -18.9793 -1.07468 14.5296
171 1 -19.2044 -1.88534 14.0601
172 1 -19.3602 -2.75227 13.6627
173 1 -19.4719 -3.5927 13.2424
174 1 -19.6036 -4.5345 13.1046
175 1 -19.3234 -5.41804 12.8071
176 1 -18.8472 -6.20559 12.6415
177 1 -18.5291 -7.0818 12.6403
178 1 -17.9635 -7.78021 12.9493
179 1 -17.0718 -8.07516 13.072
180 1 -16.1081 -7.93529 13.0951
181 1 -15.2416 -7.9081 12.9832
182 1 -14.3256 -8.0354 12.8292
183 1 -13.4131 -8.13225 12.864
184 1 -12.4872 -8.07483 12.8547
185 1 -11.5806 -7.92227 12.7721
186 1 -10.6194 -7.75783 12.646
187 1 -9.71342 -7.59328 12.336
188 1 -9.01518 -7.5207 11.6956
189 1 -8.52177 -7.48547 10.8698
190 1 -8.34233 -7.37283 9.89919
191 1 -8.10193 -7.22331 9.02027
192 1 -7.75381 -7.0245 8.22716
193 1 -7.23101 -7.00377 7.3966
194 1 -6.47718 -6.99138 6.78278
195 1 -5.75959 -7.07915 6.17496
196 1 -5.08198 -7.44235 5.58597
197 1 -4.29073 -7.74904 5.18232
198 1 -3.67799 -8.43557 4.79771
199 1 -2.89956 -8.90665 4.56082
200 1 -2.1799 -9.52919 4.31794
201 1 -1.42634 -9.88967 3.86677
202 1 -0.634066 -9.84024 3.36519
203 1 0.248107 -9.89445 3.01263
204 1 1.13497 -9.86865 2.78969
205 1 1.95698 -9.69434 2.41859
206 1 2.71337 -9.33322 1.96059
207 1 3.41836 -8.9561 1.4114
208 1 4.01091 -8.56674 0.708986
209 1 4.46003 -8.25106 -0.0910668
210 1 4.9763 -7.86001 -0.72311
211 1 5.4719 -7.85807 -1.51386
212 1 6.06178 -7.93998 -2.17131
213 1 6.83072 -7.95683 -2.70778
214 1 7.49362 -7.84389 -3.3481
215 1 8.14087 -7.65859 -4.01366
216 1 8.72821 -7.30722 -4.6442
217 1 9.08902 -6.67626 -5.23546
218 1 9.39871 -5.93919 -5.65464
219 1 9.35676 -5.04725 -5.96592
220 1 8.94291 -4.26362 -6.18666
221 1 8.63323 -3.28686 -6.38896
222 1 8.46524 -2.47451 -6.80655
223 1 8.40894 -1.60774 -7.13835
224 1 8.3612 -0.653308 -7.25994
225 1 8.49864 0.273221 -7.56173
226 1 8.71338 1.15562 -7.8476
227 1 9.05254 2.04089 -8.00911
228 1 9.22067 2.95196 -8.31541
229 1 9.25947 3.90774 -8.55256
230 1 9.34283 4.82346 -8.81828
231 1 9.12347 5.65806 -9.38702
232 1 8.6018 6.49797 -9.49393
233 1 8.20952 7.35644 -9.41785
234 1 7.67483 8.08531 -9.24836
235 1 7.04526 8.67702 -8.86979
236 1 6.42159 9.21442 -8.33924
237 1 5.70155 9.69334 -7.94521
238 1 5.05091 10.284 -7.72459
239 1 4.47506 11.0255 -7.40489
240 1 3.84889 11.6504 -7.01688
241 1 3.20706 12.3603 -6.86114
242 1 2.84204 13.2629 -6.66014
243 1 2.84881 14.1289 -6.35913
244 1 3.19515 14.9706 -6.21924
245 1 3.5521 15.902 -5.96113
246 1 4.03454 16.7549 -6.01465
247 1 4.58505 17.5137 -6.04803
248 1 5.05513 18.3112 -5.91216
249 1 5.44316 19.0314 -5.44855
250 1 5.73785 19.749 -4.9154
251 1 5.51093 20.5764 -4.57563
252 1 5.50026 21.4332 -4.20511
253 1 5.61499 22.3766 -4.18204
254 1 5.56991 23.2782 -3.94895
255 1 5.6061 24.1839 -3.54023
256 1 5.654 25.0823 -3.30701
257 1 5.66541 25.8958 -2.80336
258 1 5.70701 26.741 -2.3751
259 1 5.77755 27.6632 -2.22423
260 1 6.01379 28.5582 -2.08795
261 1 6.42706 29.3679 -1.83889
262 1 6.65001 30.1789 -1.40156
263 1 6.95306 30.9425 -0.945319
264 1 7.25853 31.7539 -0.601876
265 1 7.6078 32.5422 -0.172284
266 1 8.0578 33.2617 0.281104
267 1 8.67269 33.7447 0.859894
268 1 8.95186 34.206 1.63866
269 1 9.34278 34.471 2.41109
270 1 9.84768 34.5555 3.23631
271 1 10.4788 34.4571 3.97193
272 1 11.0495 34.2707 4.72912
273 1 11.487 33.992 5.44186
274 1 11.7818 33.472 6.18448
275 1 11.9734 32.9139 6.93579
276 1 12.1346 32.2182 7.53264
277 1 12.3827 31.6102 8.19753
278 1 12.4781 31.1533 8.92951
279 1 12.4458 30.5358 9.64626
280 1 12.6487 29.8476 10.2788
281 1 12.6886 29.0598 10.8721
282 1 12.536 28.2874 11.3865
283 1 12.4312 27.6122 12.0843
284 1 12.4467 26.8435 12.6111
285 1 12.5298 26.041 13.0283
286 1 12.5904 25.1962 13.4673
287 1 12.9398 24.3712 13.8016
288 1 13.3996 23.5871 13.7565
289 1 14.0387 22.8979 13.5964
290 1 14.5641 22.1224 13.3752
291 1 14.7873 21.2801 13.3059
292 1 14.768 20.4209 13.6238
293 1 14.7281 19.4322 13.6329
294 1 14.7251 18.4454 13.4445
295 1 14.8634 17.5314 13.2451
296 1 14.8654 16.6512 13.0534
297 1 15.0027 15.7749 12.9372
298 1 15.194 14.8661 12.8457
299 1 15.7666 14.1208 12.8499
300 1 16.3706 13.4098 12.8132
301 1 17.1274 12.8665 12.8202
302 1 17.9129 12.2728 12.825
303 1 18.5641 11.6433 12.8496
304 1 19.3258 11.1084 12.9007
305 1 20.0503 10.5607 13.0349
306 1 20.6075 9.8109 13.0907
307 1 21.0875 8.99876 13.0767
308 1 21.4747 8.11813 13.1747
309 1 21.8217 7.19629 13.3717
310 1 22.4101 6.45195 13.5823
311 1 22.9341 5.67564 13.7716
312 1 23.4052 4.82877 13.7271
313 1 23.9353 4.00265 13.8364
314 1 24.6743 3.50255 13.8859
315 1 25.5567 3.15513 13.9633
316 1 26.4264 2.67203 13.9186
317 1 27.2226 2.18811 14.0418
318 1 28.0809 1.84864 14.1329
319 1 28.8639 1.31454 14.2413
320 1 29.7279 1.07653 14.3916
321 1 30.6281 0.69342 14.4313
322 1 31.5209 0.413375 14.5185
323 1 32.3925 0.36827 14.6593
324 1 33.221 0.138887 15.0696
325 1 34.1286 -0.0877652 15.1873
326 1 35.0526 -0.0418745 15.3478
327 1 35.9447 0.0456513 15.5348
328 1 36.7914 0.293833 15.765
329 1 37.7516 0.464952 15.8835
330 1 38.6836 0.553703 15.8514
331 1 39.6433 0.646257 15.8855
332 1 40.5981 0.796506 15.9658
333 1 41.5825 0.734649 15.8972
334 1 42.5041 0.74005 15.6628
335 1 43.3212 0.802423 15.2397
336 1 44.0743 1.08565 14.7818
337 1 44.7369 1.29689 14.1398
338 1 45.4513 1.5993 13.5097
339 1 45.9456 1.93266 12.8169
340 1 46.6005 2.22118 12.2265
341 1 47.2076 2.49136 11.5634
342 1 47.5581 2.81633 10.753
343 1 47.798 3.23925 9.9192
344 1 47.8845 3.82324 9.16733
345 1 48.0072 4.44934 8.4345
346 1 48.026 4.76333 7.59302
347 1 48.0913 5.202 6.79308
348 1 48.2185 5.57742 5.9301
349 1 48.298 5.73377 4.95444
350 1 48.5674 5.99623 4.13699
351 1 48.9518 6.4042 3.35256
352 1 49.401 6.94792 2.66419
353 1 50.1205 7.16495 2.17747
354 1 50.7249 7.42645 1.49933
355 1 51.3146 7.72745 0.868497
356 1 51.8809 8.19056 0.228781
357 1 52.1489 8.82579 -0.461562
358 1 52.4775 9.64892 -0.948126
359 1 52.7042 10.451 -1.46573
360 1 52.9547 11.1207 -2.09407
361 1 53.0681 11.8673 -2.61878
362 1 53.3048 12.6234 -3.07698
363 1 53.3447 13.4555 -3.57799
364 1 53.4392 14.0873 -4.25284
365 1 53.4862 14.8064 -4.8104
366 1 53.6935 15.4758 -5.47933
367 1 53.7737 16.1687 -6.11473
368 1 53.6752 16.8029 -6.82871
369 1 53.678 17.6159 -7.31577
370 1 53.6454 18.4508 -7.77634
371 1 53.7051 19.287 -8.30049
372 1 54.0537 20.0655 -8.6644
373 1 54.261 20.9972 -8.85162
374 1 54.309 21.8952 -8.95799
375 1 54.3851 22.8093 -8.97025
376 1 54.7354 23.702 -9.0683
377 1 55.0955 24.6022 -9.15819
378 1 55.6459 25.3487 -9.13685
379 1 56.3284 25.9826 -8.92297
380 1 56.7884 26.6449 -8.49298
381 1 57.52 27.1566 -8.20973
382 1 58.2245 27.7943 -8.08982
383 1 58.7691 28.4109 -7.55323
384 1 59.3068 29.0917 -7.25003
385 1 59.9749 29.7882 -6.91667
386 1 60.718 30.3867 -6.71996
387 1 61.3921 30.9413 -6.37792
388 1 62.1013 31.5589 -6.19021
389 1 62.7016 32.3684 -6.14517
390 1 63.0556 33.2397 -5.94363
391 1 63.3824 34.1714 -5.87633
392 1 63.7808 35.0562 -5.99818
393 1 63.9434 35.9335 -6.11768
394 1 64.0974 36.8401 -6.30581
395 1 63.9557 37.729 -6.52489
396 1 63.8855 38.6459 -6.73423
397 1 63.9019 39.5832 -7.02283
398 1 64.0914 40.5306 -7.27229
399 1 64.3507 41.4418 -7.21831
400 1 64.7189 42.4249 -7.37402
401 1 65.1793 43.1378 -7.71763
402 1 65.6769 43.7829 -8.17843
403 1 65.9144 44.4275 -8.82805
404 1 65.895 45.0284 -9.53222
405 1 65.9113 45.7509 -10.0811
406 1 66.0125 46.6076 -10.4795
407 1 66.3007 47.4362 -10.8313
408 1 66.4106 48.2701 -11.1901
409 1 66.882 48.9625 -11.585
410 1 67.389 49.615 -12.0159
411 1 68.031 50.1747 -12.3228
412 1 68.5387 50.839 -12.8532
413 1 68.9048 51.7558 -12.933
414 1 69.4763 52.463 -13.0109
415 1 69.9106 53.2072 -13.3355
416 1 70.5556 53.885 -13.5181
417 1 71.1033 54.6008 -13.4246
418 1 71.7475 55.1641 -13.1244
419 1 72.4205 55.9082 -13.039
420 1 72.9923 56.6725 -13.1837
421 1 73.6374 57.1356 -13.6283
422 1 74.3643 57.4173 -14.1898
423 1 75.1057 57.7715 -14.6598
424 1 75.6703 57.9995 -15.4026
425 1 76.1204 58.2611 -16.1471
426 1 76.6744 58.5621 -16.8634
427 1 77.2743 58.8856 -17.5128
428 1 77.9618 59.1894 -18.0819
429 1 78.5393 59.8415 -18.5374
430 1 78.9079 60.3366 -19.1953
431 1 79.3753 60.6709 -19.8935
432 1 79.9719 60.9365 -20.541
433 1 80.6174 61.2753 -21.1191
434 1 81.3577 61.5385 -21.5882
435 1 82.0747 61.8335 -22.1334
436 1 82.8904 61.9228 -22.5893
437 1 83.8415 61.9599 -22.7657
438 1 84.7424 62.0402 -22.6801
439 1 85.6574 62.1642 -22.7923
440 1 86.452 61.9671 -23.175
441 1 87.3954 61.6995 -23.227
442 1 88.3116 61.5534 -23.2551
443 1 89.2136 61.5583 -23.3725
444 1 90.1432 61.4432 -23.3191
445 1 91.0613 61.2073 -23.246
446 1 91.8569 60.7923 -23.4949
447 1 92.6233 60.3636 -23.8208
448 1 93.2428 59.8929 -24.3751
449 1 93.8765 59.5419 -25.0399
450 1 94.4986 59.088 -25.592
451 1 94.8248 58.866 -26.4473
452 1 95.2519 58.4387 -27.2384
453 1 95.574 58.3017 -28.1251
454 1 96.0786 58.0741 -28.9787