ITEM: TIMESTEP
1320000
ITEM: NUMBER OF ATOMS
512
ITEM: BOX BOUNDS mm mm mm
-2.5600000000000000e+02 2.5600000000000000e+02
-2.5600000000000000e+02 2.5600000000000000e+02
-2.5600000000000000e+02 2.5600000000000000e+02
ITEM: ATOMS id type x y z
1 1 -68.1756 13.3395 10.7735
2 1 -68.2213 12.4584 10.9826
3 1 -68.3631 11.5714 10.8691
4 1 -68.2583 10.7076 10.5811
5 1 -67.8772 9.8554 10.7214
6 1 -67.4039 9.20903 10.2685
7 1 -66.9097 8.64471 9.68934
8 1 -66.2296 9.12966 9.14618
9 1 -66.8434 9.83279 9.21039
10 1 -67.2558 10.6551 9.44078
11 1 -67.1208 11.3626 10.0321
12 1 -67.0335 12.032 10.6555
13 1 -67.2711 12.5224 11.4732
14 1 -67.3507 13.0066 12.2663
15 1 -67.463 13.4822 13.1203
16 1 -67.448 14.0094 13.9138
17 1 -68.0139 14.3085 14.6058
18 1 -68.286 14.9464 15.2641
19 1 -68.2664 15.5333 16.0234
20 1 -68.3099 16.3781 16.3889
21 1 -67.704 16.8505 15.8063
22 1 -67.5765 17.7815 15.5633
23 1 -67.4886 18.4557 14.9199
24 1 -67.1618 18.6533 14.0405
25 1 -66.4626 18.6529 13.3462
26 1 -65.7687 18.0899 13.0225
27 1 -65.4271 17.3944 12.4907
28 1 -64.7143 17.1561 11.9365
29 1 -64.0953 17.1713 11.2666
30 1 -63.761 18.0281 11.2714
31 1 -63.5349 18.9256 11.1045
32 1 -63.494 19.7007 10.5042
33 1 -63.4664 19.925 9.58146
34 1 -63.6483 19.5367 8.71583
35 1 -64.2919 19.1841 8.19535
36 1 -65.0757 18.7284 8.43622
37 1 -65.9605 18.9147 8.37904
38 1 -66.7656 18.6939 7.97654
39 1 -67.5069 18.7812 7.4456
40 1 -68.3548 18.5302 7.73987
41 1 -69.2341 18.8785 7.94554
42 1 -70.1441 19.0941 7.86054
43 1 -71.0642 19.1351 7.60727
44 1 -71.2953 18.4653 7.00458
45 1 -71.5972 17.8017 6.38071
46 1 -71.4833 17.7856 5.40691
47 1 -71.2865 17.6921 4.46168
48 1 -70.4507 17.273 4.61764
49 1 -69.6521 17.2345 4.05566
50 1 -68.9132 17.1524 3.4171
51 1 -69.3791 16.3217 3.26738
52 1 -69.6042 15.7097 2.50985
53 1 -70.046 15.5148 1.71339
54 1 -69.9198 15.2969 0.798994
55 1 -70.5176 14.8964 0.200377
56 1 -71.0246 14.4147 -0.418405
57 1 -71.6975 13.8744 -0.809879
58 1 -72.4773 13.8514 -1.297
59 1 -73.3091 13.9183 -1.76497
60 1 -74.2324 13.6003 -1.62666
61 1 -74.7809 12.9724 -1.28937
62 1 -74.3707 12.2796 -0.82143
63 1 -74.0141 11.712 -0.165718
64 1 -73.4539 11.0284 0.218715
65 1 -72.6873 10.5002 0.574158
66 1 -72.2941 10.6094 1.39643
67 1 -72.6924 10.079 2.07635
68 1 -72.5068 9.3035 2.60476
69 1 -72.1257 8.41864 2.90731
70 1 -71.6429 7.64562 3.01257
71 1 -71.1576 6.81489 2.9206
72 1 -70.7833 6.39805 3.70654
73 1 -70.4811 6.11375 4.52839
74 1 -69.623 6.11651 4.89254
75 1 -69.2496 6.92648 5.24139
76 1 -68.5651 7.11942 5.93126
77 1 -67.6972 6.78053 6.02876
78 1 -67.3478 5.95716 6.25219
79 1 -66.928 5.23519 5.89579
80 1 -66.921 4.30348 5.55843
81 1 -66.5404 3.54175 5.15335
82 1 -66.5283 2.62362 5.33735
83 1 -66.6686 1.81227 5.81862
84 1 -66.7956 1.14337 6.43294
85 1 -67.4805 0.511005 6.70714
86 1 -67.5569 -0.424711 6.57459
87 1 -67.6296 -1.36174 6.898
88 1 -67.3219 -2.21836 6.73926
89 1 -66.7504 -2.953 7.00733
90 1 -66.5987 -3.84676 7.21297
91 1 -66.5425 -4.64159 6.70903
92 1 -65.9611 -4.97075 6.03258
93 1 -65.2233 -4.91469 5.39013
94 1 -64.3326 -4.7214 5.46823
95 1 -63.4717 -4.37886 5.38567
96 1 -62.7664 -4.59007 4.81666
97 1 -61.9226 -4.8783 4.48757
98 1 -61.2698 -4.57296 3.85713
99 1 -60.5804 -4.14208 3.36582
100 1 -59.7363 -3.6475 3.49118
101 1 -58.912 -3.18924 3.35167
102 1 -58.902 -2.35326 2.90893
103 1 -59.122 -1.51495 2.62236
104 1 -59.0861 -0.579435 2.73155
105 1 -58.6848 -0.0631729 2.05666
106 1 -57.8641 0.37328 1.96385
107 1 -57.0328 0.834697 1.80538
108 1 -56.5076 1.02824 1.06368
109 1 -56.1335 1.12492 0.228874
110 1 -55.6098 0.83903 -0.522083
111 1 -55.0042 0.19379 -0.780044
112 1 -54.0896 -0.0885048 -0.872726
113 1 -53.2771 0.264169 -1.18664
114 1 -52.4504 0.669356 -0.957129
115 1 -52.2826 1.15805 -0.210766
116 1 -51.3858 1.42917 0.0841898
117 1 -50.7695 1.00349 0.64216
118 1 -50.2103 0.241903 0.606843
119 1 -49.7941 -0.132781 -0.168071
120 1 -49.5594 0.346058 -0.951755
121 1 -49.5499 0.0678643 -1.85884
122 1 -49.8151 -0.506501 -2.64799
123 1 -50.1313 -1.18682 -3.16138
124 1 -50.7817 -1.87679 -3.42768
125 1 -51.2312 -2.52681 -2.92308
126 1 -52.0787 -2.86979 -2.64825
127 1 -52.8447 -3.24146 -2.15189
128 1 -53.7344 -2.99427 -2.02992
129 1 -54.6447 -3.18005 -1.88408
130 1 -54.5241 -4.02224 -1.55186
131 1 -54.1549 -4.49014 -0.854613
132 1 -53.2802 -4.59056 -0.542835
133 1 -52.6464 -5.24538 -0.883494
134 1 -52.3983 -5.87941 -1.49924
135 1 -52.1942 -6.47475 -2.17815
136 1 -52.1984 -6.98438 -2.92184
137 1 -51.9931 -6.90123 -3.81205
138 1 -51.2118 -6.74359 -4.3511
139 1 -50.575 -6.62247 -5.04273
140 1 -49.8424 -6.14235 -5.36277
141 1 -49.5011 -5.55533 -6.00233
142 1 -48.983 -4.77617 -5.83809
143 1 -48.8772 -4.13524 -5.16553
144 1 -48.2962 -3.59271 -4.76936
145 1 -47.8136 -2.8606 -5.19191
146 1 -47.22 -2.12055 -5.21438
147 1 -46.6009 -1.45648 -5.11221
148 1 -45.6632 -1.20847 -5.16181
149 1 -44.9991 -0.581493 -5.14544
150 1 -44.09 -0.290791 -5.1951
151 1 -43.1467 -0.176734 -5.19675
152 1 -42.3455 0.198655 -5.54054
153 1 -41.4041 0.488044 -5.53528
154 1 -40.4901 0.401088 -5.49995
155 1 -39.9365 -0.305744 -5.84838
156 1 -39.3942 -1.03109 -5.61768
157 1 -38.639 -0.883301 -5.10228
158 1 -37.9545 -0.714822 -4.54741
159 1 -37.1451 -0.72989 -3.97255
160 1 -36.6496 -1.38981 -3.41728
161 1 -36.2599 -2.2398 -3.20943
162 1 -36.4795 -2.69816 -2.41849
163 1 -37.1057 -2.37387 -1.82625
164 1 -37.117 -1.89823 -0.961897
165 1 -36.75 -1.68876 -0.135611
166 1 -35.948 -1.57052 0.414891
167 1 -35.5016 -1.20189 1.13994
168 1 -34.7912 -0.647087 1.48372
169 1 -34.8574 0.250045 1.37224
170 1 -34.5178 1.08775 1.60081
171 1 -34.8866 1.93778 1.6105
172 1 -34.5325 2.78682 1.55828
173 1 -33.7659 3.26856 1.68042
174 1 -32.897 3.48798 1.42138
175 1 -31.9776 3.55566 1.37414
176 1 -31.1737 3.67296 0.860111
177 1 -30.3149 4.05226 0.754028
178 1 -30.0735 4.76166 0.234538
179 1 -29.5009 5.43945 -0.202683
180 1 -28.6268 5.36592 -0.528931
181 1 -27.907 5.0259 -1.07926
182 1 -27.5957 4.62614 -1.85047
183 1 -26.9417 5.09144 -2.39037
184 1 -26.5944 6.00757 -2.45369
185 1 -26.3325 6.77786 -2.91146
186 1 -26.0106 7.40426 -3.60717
187 1 -25.7775 8.18127 -4.02798
188 1 -25.6354 9.12458 -3.8471
189 1 -25.7749 10.0484 -3.57084
190 1 -25.1263 10.7053 -3.83752
191 1 -24.3206 11.1611 -4.03343
192 1 -23.9958 12.0002 -4.31742
193 1 -23.6921 12.0769 -5.2036
194 1 -23.571 12.6083 -5.95306
195 1 -23.2757 13.1005 -6.72133
196 1 -22.6143 13.674 -7.13188
197 1 -21.9554 13.8752 -6.5493
198 1 -21.17 14.0598 -6.03665
199 1 -20.5502 14.7445 -5.94739
200 1 -19.7827 14.8197 -6.49992
201 1 -19.6434 14.9339 -7.51781
202 1 -19.2957 15.2226 -8.35827
203 1 -18.6698 15.9009 -8.56355
204 1 -18.4171 16.4704 -7.82207
205 1 -17.7764 16.2374 -7.1224
206 1 -17.2663 16.4248 -6.3008
207 1 -17.0285 16.1496 -5.43672
208 1 -16.9577 15.6109 -4.70259
209 1 -16.952 15.0901 -3.91322
210 1 -17.051 14.3264 -3.33821
211 1 -16.5644 14.1375 -2.56746
212 1 -16.1158 13.7587 -1.85941
213 1 -16.5656 13.5659 -1.0272
214 1 -17.3857 13.686 -0.582713
215 1 -17.7822 14.22 0.0695658
216 1 -17.6415 15.1057 0.374662
217 1 -18.0301 15.8934 0.0496135
218 1 -17.6653 16.672 -0.389775
219 1 -16.9696 17.2814 -0.282015
220 1 -16.0965 17.8169 -0.310978
221 1 -15.4852 18.3684 -0.72352
222 1 -14.8203 18.903 -1.22258
223 1 -14.0458 19.4936 -1.28084
224 1 -13.351 19.9029 -0.842934
225 1 -12.4927 19.8756 -0.408409
226 1 -12.1767 19.9345 0.459334
227 1 -11.5859 19.3682 0.894712
228 1 -10.8201 19.0408 0.5499
229 1 -10.2533 18.5123 1.06046
230 1 -9.83419 17.8747 1.57189
231 1 -9.39918 17.4203 2.32173
232 1 -9.39293 17.4102 3.24839
233 1 -9.39641 17.4564 4.17882
234 1 -9.06346 17.9553 4.90539
235 1 -8.47703 18.1198 5.608
236 1 -8.33826 17.8445 6.49239
237 1 -8.0982 18.4107 7.19761
238 1 -7.8626 19.1072 7.74052
239 1 -7.74688 19.5517 8.56184
240 1 -7.49678 19.8358 9.42232
241 1 -6.85119 19.6194 10.0844
242 1 -5.97241 19.6888 10.2726
243 1 -5.06839 19.3512 10.3812
244 1 -4.22276 19.1306 10.5579
245 1 -3.33144 18.8684 10.8016
246 1 -2.51565 18.5113 10.8879
247 1 -1.75724 18.6628 10.3678
248 1 -0.782702 18.6483 10.2393
249 1 -0.222281 18.0955 10.6277
250 1 0.515854 17.523 10.7828
251 1 0.828889 16.8479 10.2161
252 1 1.23359 16.4194 9.43932
253 1 1.91634 16.1424 8.82832
254 1 2.62314 16.0259 8.28659
255 1 3.36055 16.1315 7.6299
256 1 3.94218 15.6078 7.13163
257 1 4.88709 15.5874 7.00126
258 1 5.32762 15.9972 6.23392
259 1 5.91766 16.5399 5.76927
260 1 6.35844 17.0933 6.36913
261 1 6.53197 17.2301 7.28839
262 1 6.60887 17.3378 8.21635
263 1 7.04086 16.5142 8.40761
264 1 7.72146 15.9592 8.79524
265 1 8.66422 16.0398 8.84573
266 1 9.20319 16.6219 8.35097
267 1 10.0971 16.9145 8.29785
268 1 10.9722 17.1708 8.46745
269 1 11.8992 17.3662 8.62211
270 1 12.8092 17.6817 8.29303
271 1 13.572 18.1157 7.9358
272 1 14.2126 18.5624 7.39662
273 1 15.1093 18.4505 7.14313
274 1 15.339 17.7189 6.57577
275 1 16.0501 17.1806 6.30969
276 1 17.0157 17.3017 6.05067
277 1 17.6434 18.0027 5.96436
278 1 17.8559 18.966 5.94975
279 1 18.492 19.6801 5.84529
280 1 18.9567 20.4387 5.62308
281 1 19.3996 21.1859 5.2627
282 1 19.6542 22.0408 5.46342
283 1 20.5071 22.3492 5.76381
284 1 21.4441 22.1864 5.86157
285 1 22.2789 22.2017 5.52083
286 1 22.9478 21.9817 4.83179
287 1 23.745 22.165 4.39355
288 1 24.3825 21.5081 4.35511
289 1 24.6971 20.658 3.97599
290 1 25.3398 20.011 3.89686
291 1 25.8911 19.2224 3.95747
292 1 25.6874 18.4259 3.56798
293 1 25.8835 17.4877 3.56819
294 1 25.8734 16.6176 3.46905
295 1 26.7344 16.4758 3.88345
296 1 27.6217 16.2001 3.9453
297 1 28.564 16.2392 4.1428
298 1 29.3035 15.8152 4.68143
299 1 30.1918 15.7628 4.88839
300 1 30.8788 15.1765 4.7088
301 1 31.4789 15.3988 3.95868
302 1 31.8042 15.7658 3.21121
303 1 31.9449 15.5478 2.29225
304 1 32.467 15.1325 1.59638
305 1 32.9708 15.0952 0.774164
306 1 33.4654 15.1982 -0.0146617
307 1 33.8683 15.7794 -0.618677
308 1 33.9192 15.794 -1.55503
309 1 34.4036 15.312 -2.184
310 1 34.8963 14.512 -2.18633
311 1 34.9705 13.6085 -1.85583
312 1 35.3672 12.8186 -2.16573
313 1 35.8221 12.6296 -2.96141
314 1 36.3141 12.0065 -3.49887
315 1 36.1338 11.3063 -4.16275
316 1 36.8566 10.9065 -4.67562
317 1 37.1982 10.377 -5.36118
318 1 38.0798 10.1717 -5.30743
319 1 38.6478 9.44726 -5.2943
320 1 39.496 9.11219 -5.52552
321 1 40.3234 8.60278 -5.47798
322 1 40.6755 8.30305 -4.6331
323 1 41.4907 7.96227 -5.04845
324 1 42.2736 8.40227 -5.3465
325 1 43.0949 8.5256 -4.97098
326 1 44.0374 8.58516 -5.13022
327 1 44.6774 8.39962 -4.4511
328 1 45.4883 8.5414 -4.02119
329 1 46.3764 8.88837 -4.01074
330 1 47.2242 8.51125 -3.73729
331 1 47.7371 8.75785 -2.97411
332 1 48.4613 8.93586 -2.40357
333 1 49.0533 9.25496 -1.71625
334 1 49.0472 10.0655 -1.31685
335 1 49.0545 10.9 -1.76064
336 1 49.2242 11.8351 -1.92198
337 1 49.2586 12.7001 -1.6833
338 1 49.4208 13.5266 -2.23562
339 1 49.4577 13.4998 -3.16123
340 1 50.3212 13.5952 -3.42493
341 1 50.9522 14.1852 -2.9988
342 1 51.8526 14.3875 -3.31649
343 1 51.8299 14.2004 -4.3076
344 1 52.2223 13.8646 -5.10752
345 1 52.2153 13.0432 -5.54404
346 1 52.5062 12.295 -5.99055
347 1 52.4272 11.5308 -6.57089
348 1 52.0057 10.9737 -7.21826
349 1 51.0811 10.914 -7.35627
350 1 50.4014 11.3378 -7.84062
351 1 49.7915 11.81 -8.35335
352 1 49.3728 12.6255 -8.31063
353 1 49.6189 13.5338 -8.41699
354 1 49.9503 14.4466 -8.58241
355 1 50.0247 15.1217 -7.98418
356 1 50.605 15.6546 -7.47415
357 1 51.2081 15.932 -6.85459
358 1 51.806 16.4205 -6.25997
359 1 51.8279 16.3848 -5.29047
360 1 52.0181 16.7778 -4.46144
361 1 52.0734 17.152 -3.64392
362 1 51.3527 17.5162 -3.11137
363 1 50.7946 18.1361 -2.70853
364 1 49.8729 17.8196 -2.63636
365 1 48.9398 17.6829 -2.50033
366 1 48.4343 17.2039 -1.83254
367 1 48.3975 17.0997 -0.888788
368 1 48.7554 16.4402 -0.346099
369 1 48.5023 15.9921 0.497545
370 1 48.1301 15.742 1.31705
371 1 47.1987 16.0228 1.48925
372 1 46.3329 16.2515 1.83291
373 1 45.5258 16.3027 2.44294
374 1 44.7521 16.4934 2.92056
375 1 44.2035 16.7315 3.68591
376 1 44.0688 17.663 3.87175
377 1 44.5028 18.4894 3.97842
378 1 44.8424 19.3353 3.72197
379 1 45.7484 19.2539 3.65706
380 1 46.4926 18.72 3.67474
381 1 47.3149 18.1953 3.84411
382 1 48.23 18.5588 3.84006
383 1 48.9581 18.8522 3.29819
384 1 49.7224 19.4338 3.49485
385 1 50.2386 20.1206 3.86028
386 1 50.7593 19.8644 4.63037
387 1 51.4699 19.7808 5.19897
388 1 52.4096 19.8255 5.15177
389 1 52.926 19.3103 4.64357
390 1 52.7647 19.2344 3.71856
391 1 53.2614 18.6671 3.12545
392 1 53.9988 18.2104 2.8062
393 1 54.6518 17.5404 2.4978
394 1 54.929 16.7711 1.97851
395 1 55.6931 16.2475 1.91754
396 1 56.2755 15.4934 1.99194
397 1 57.0386 15.0064 1.76743
398 1 57.7188 14.4719 1.31255
399 1 57.5145 15.1521 0.703966
400 1 58.1456 15.4053 0.0608569
401 1 59.1355 15.3041 0.109767
402 1 60.0391 14.9812 0.0424342
403 1 60.6153 15.6289 -0.351448
404 1 60.8095 16.54 -0.506118
405 1 61.3414 17.3351 -0.675621
406 1 61.8731 18.0721 -1.0148
407 1 62.2614 18.7992 -1.46916
408 1 62.8589 19.3524 -1.91529
409 1 63.4524 19.8988 -2.42193
410 1 63.8702 20.6778 -2.16579
411 1 64.3496 21.4301 -2.07358
412 1 64.8238 21.0822 -2.88923
413 1 65.1036 20.8315 -3.73123
414 1 65.064 20.9311 -4.68127
415 1 64.5921 20.8304 -5.53849
416 1 64.3799 19.9439 -5.57824
417 1 64.9556 19.2558 -5.39669
418 1 65.4991 18.4767 -5.29704
419 1 66.2479 17.7604 -5.41835
420 1 66.957 17.3899 -4.95542
421 1 67.6731 16.8116 -5.16527
422 1 68.2649 16.1126 -5.14651
423 1 68.9676 15.8118 -5.66605
424 1 69.2864 16.0306 -6.54168
425 1 70.062 16.1885 -7.17767
426 1 70.912 16.2908 -6.80552
427 1 71.6804 16.3206 -7.41688
428 1 72.0072 16.5577 -8.25711
429 1 72.588 17.045 -8.79328
430 1 73.0513 16.6097 -9.47611
431 1 72.7581 16.2668 -10.3025
432 1 72.7616 16.687 -11.1241
433 1 72.4798 17.5714 -11.0689
434 1 71.986 18.267 -11.4525
435 1 71.0649 18.3994 -11.6064
436 1 70.5375 18.2497 -12.3543
437 1 70.4139 17.8245 -13.1863
438 1 70.1776 17.4531 -13.9891
439 1 69.5906 17.3372 -14.7125
440 1 68.8935 16.7558 -14.8937
441 1 68.3043 15.9952 -14.764
442 1 67.6706 15.2895 -14.8598
443 1 66.7934 14.8945 -14.8725
444 1 66.7139 14.6359 -15.7266
445 1 65.8899 14.2558 -16.16
446 1 66.0104 13.3719 -16.4752
447 1 66.5886 12.718 -16.1046
448 1 67.3131 12.6558 -15.4701
449 1 67.7926 12.8002 -14.6618
450 1 68.2174 13.4522 -14.1317
451 1 68.3569 14.3243 -13.8888
452 1 69.0007 15.0069 -13.6754
453 1 69.8212 15.3197 -14.0072
454 1 70.6229 15.7772 -14.2936
455 1 71.0448 16.5986 -14.4432
456 1 71.0996 17.5411 -14.3363
457 1 70.7913 18.4022 -14.1493
458 1 70.3583 19.2894 -14.0774
459 1 70.6949 20.1147 -14.3703
460 1 71.218 20.649 -13.7485
461 1 72.0374 20.2769 -13.8529
462 1 72.9332 19.925 -13.6873
463 1 73.7268 19.4944 -13.6804
464 1 74.3416 18.9169 -14.0835
465 1 75.2083 18.897 -13.7086
466 1 75.8007 18.2632 -13.5282
467 1 75.7658 17.4531 -13.1218
468 1 76.1949 16.6972 -12.9942
469 1 75.8448 15.8898 -12.8358
470 1 75.6008 15.0167 -12.9412
471 1 76.037 14.3586 -13.4056
472 1 76.063 13.7435 -14.1311
473 1 75.6862 13.3973 -14.9704
474 1 75.2011 12.7489 -15.5099
475 1 75.2002 12.503 -16.4589
476 1 75.0519 11.8301 -17.206
477 1 75.6299 11.2916 -17.6936
478 1 75.5509 10.3557 -17.905
479 1 75.4392 9.40333 -17.9105
480 1 75.2662 8.51103 -17.8523
481 1 75.1944 7.59684 -18.0206
482 1 75.2282 6.76887 -18.3877
483 1 75.123 6.13968 -19.1605
484 1 74.4727 5.90237 -19.7705
485 1 74.1281 5.04464 -19.9862
486 1 74.4584 4.14087 -20.1659
487 1 75.2632 3.70159 -20.1999
488 1 76.1344 4.08831 -20.0769
489 1 76.7131 4.19015 -20.8366
490 1 77.4162 4.30256 -21.4558
491 1 77.174 4.5718 -22.3056
492 1 76.7187 4.7473 -23.1558
493 1 76.2517 5.23989 -23.8031
494 1 75.9848 6.0738 -24.2554
495 1 76.6989 6.6153 -24.0602
496 1 77.203 7.3986 -24.3722
497 1 77.5998 8.18022 -24.7077
498 1 77.4338 8.88497 -25.3347
499 1 77.5798 9.8373 -25.5832
500 1 78.2812 10.4473 -25.5643
501 1 79.1428 10.7472 -25.4349
502 1 80.0605 10.9195 -25.4347
503 1 80.9423 11.1031 -25.7502
504 1 81.7331 11.4106 -26.1595
505 1 82.3942 11.7672 -26.7867
506 1 83.1907 11.5718 -27.2448
507 1 84.1529 11.5545 -27.3546
508 1 84.603 10.9121 -27.9414
509 1 84.8841 11.0257 -28.817
510 1 85.4222 10.9525 -29.6058
511 1 86.1451 11.1059 -30.1777
512 1 86.8962 10.5451 -30.2042
ITEM: TIMESTEP
1330000
ITEM: NUMBER OF ATOMS
512
ITEM: BOX BOUNDS mm mm mm
-2.5600000000000000e+02 2.5600000000000000e+02
-2.5600000000000000e+02 2.5600000000000000e+02
-2.5600000000000000e+02 2.5600000000000000e+02
ITEM: ATOMS id type x y z
1 1 -67.7167 7.44614 14.0796
2 1 -68.0139 8.38191 13.8741
3 1 -67.9313 9.11309 13.2438
4 1 -67.9267 9.89534 12.7693
5 1 -67.8199 10.7332 13.1327
6 1 -67.9436 11.6255 13.466
7 1 -67.2282 12.2238 13.7497
8 1 -66.5524 12.787 14.0031
9 1 -66.6262 13.5446 13.4861
10 1 -67.1867 14.1787 13.122
11 1 -67.9737 14.7191 13.2788
12 1 -68.8187 15.1714 13.3323
13 1 -69.5969 15.5191 13.7499
14 1 -69.702 15.3374 14.7145
15 1 -69.3562 15.8563 15.4049
16 1 -69.0279 16.7529 15.4253
17 1 -68.6346 17.3984 14.8084
18 1 -68.5163 17.7491 13.9288
19 1 -68.2063 17.2344 13.2281
20 1 -67.8609 16.4947 12.7488
21 1 -67.0769 16.5285 12.241
22 1 -66.4586 16.8557 12.8886
23 1 -65.7151 17.1559 13.4573
24 1 -64.9268 17.4961 13.7791
25 1 -64.7899 18.486 13.946
26 1 -64.7202 19.3059 13.4368
27 1 -64.3574 19.7142 12.6394
28 1 -63.9857 19.7171 11.7653
29 1 -64.6091 19.8855 11.0157
30 1 -65.5388 19.8257 10.9615
31 1 -65.6 19.0199 10.4279
32 1 -66.2707 18.3785 10.3115
33 1 -66.8662 17.895 10.8828
34 1 -67.4558 17.1702 10.984
35 1 -68.2125 16.7761 11.3381
36 1 -68.9847 16.2837 11.1609
37 1 -69.5797 15.5272 10.9467
38 1 -70.338 15.1237 10.6239
39 1 -71.2231 14.8188 10.4851
40 1 -72.1413 15.0733 10.4211
41 1 -72.9508 15.034 9.9393
42 1 -73.5664 15.7187 9.85373
43 1 -74.5037 15.9519 9.68977
44 1 -75.0109 15.3412 9.17744
45 1 -75.765 15.3578 8.65856
46 1 -75.8649 15.6302 7.76217
47 1 -76.5558 15.8956 7.17282
48 1 -77.145 15.6285 6.39382
49 1 -76.5939 15.7367 5.64591
50 1 -76.1007 15.0589 5.1863
51 1 -75.6916 14.4565 4.49622
52 1 -75.3169 14.081 3.63447
53 1 -74.6818 13.9135 3.00056
54 1 -74.066 13.5656 2.40443
55 1 -73.7631 12.669 2.06236
56 1 -74.1426 12.4886 1.22569
57 1 -74.672 11.8826 0.769537
58 1 -74.5827 11.1674 0.236425
59 1 -74.4111 10.2678 0.553049
60 1 -74.769 9.39966 0.791637
61 1 -74.8128 8.42138 0.802201
62 1 -74.9743 7.51096 0.791068
63 1 -75.2313 6.65232 0.517026
64 1 -75.3522 5.76667 0.701107
65 1 -74.8666 5.04413 0.335284
66 1 -73.9365 5.01436 0.62048
67 1 -73.0167 4.99178 0.755285
68 1 -72.2528 4.53541 1.06247
69 1 -71.4112 4.26778 1.37409
70 1 -70.7264 4.40265 1.99443
71 1 -70.4101 4.78153 2.77867
72 1 -69.7218 4.92826 3.37011
73 1 -68.8921 4.58975 3.12424
74 1 -68.0937 4.89381 2.72212
75 1 -67.6935 5.52402 3.21345
76 1 -67.1442 5.74311 3.96503
77 1 -66.2171 5.52738 4.30326
78 1 -65.7176 4.79229 4.60717
79 1 -64.8038 4.52699 4.79219
80 1 -64.4332 4.00481 5.50069
81 1 -64.2503 3.79757 6.41898
82 1 -64.4327 3.05088 6.94375
83 1 -64.8345 2.28333 7.40783
84 1 -65.0637 1.39216 7.59387
85 1 -65.0811 0.470339 7.41389
86 1 -64.7768 -0.391844 7.17481
87 1 -64.1233 -1.07406 7.25771
88 1 -63.4872 -1.78559 7.28126
89 1 -63.1326 -2.67045 7.21917
90 1 -62.2721 -3.04031 7.54453
91 1 -61.9191 -3.01606 8.38132
92 1 -61.075 -3.25987 8.55504
93 1 -60.1152 -3.06647 8.72835
94 1 -59.7762 -2.538 7.9919
95 1 -59.2308 -1.84904 7.55376
96 1 -59.2237 -0.946727 7.71327
97 1 -58.6119 -0.414856 7.26439
98 1 -57.9263 -0.758854 6.75442
99 1 -57.1794 -1.09105 6.28321
100 1 -56.5635 -0.971417 5.55704
101 1 -55.6578 -0.947257 5.20029
102 1 -55.1244 -0.164485 5.10183
103 1 -54.4579 0.36279 4.53217
104 1 -54.2763 1.26242 4.32714
105 1 -53.7602 1.71577 3.7209
106 1 -53.1711 2.28608 3.14352
107 1 -52.663 2.35846 2.33639
108 1 -52.3196 2.73955 1.57239
109 1 -51.5245 2.27655 1.40753
110 1 -51.499 1.38921 1.1654
111 1 -51.0293 1.12408 1.95654
112 1 -50.3969 1.22896 2.67326
113 1 -50.4537 0.811056 3.5525
114 1 -49.5441 0.697027 3.93273
115 1 -48.6736 0.877801 3.75937
116 1 -48.5951 1.38453 2.94473
117 1 -49.2347 1.4396 2.29279
118 1 -49.8113 1.98653 1.72916
119 1 -50.3448 2.68829 1.30124
120 1 -51.061 3.29684 1.19481
121 1 -50.7584 4.08277 0.731893
122 1 -50.3715 4.81404 0.268253
123 1 -50.7126 4.82309 -0.5857
124 1 -50.878 4.08591 -1.22619
125 1 -50.3877 4.13377 -2.0731
126 1 -50.0961 4.56891 -2.79549
127 1 -49.731 5.19647 -3.41884
128 1 -49.5859 4.71159 -4.26204
129 1 -50.1284 4.23531 -4.8625
130 1 -50.3569 3.73549 -5.58302
131 1 -50.5384 2.81805 -5.92347
132 1 -51.4325 2.69266 -5.88275
133 1 -51.6972 2.3041 -5.09524
134 1 -52.0675 1.70792 -4.4681
135 1 -51.7224 1.06215 -3.87055
136 1 -51.6943 0.278504 -3.30381
137 1 -51.2661 -0.559316 -3.04796
138 1 -51.1071 -1.43844 -2.85765
139 1 -50.6091 -2.16822 -3.21405
140 1 -50.1942 -2.84516 -2.71629
141 1 -49.8714 -3.64092 -2.27472
142 1 -48.9301 -3.77351 -2.33877
143 1 -48.0849 -4.04049 -2.58527
144 1 -47.5906 -4.43819 -3.28157
145 1 -47.035 -4.88327 -3.8583
146 1 -46.1126 -5.04896 -4.15995
147 1 -45.4348 -4.97361 -4.83598
148 1 -44.8798 -5.77513 -4.70082
149 1 -44.697 -6.67026 -4.51359
150 1 -44.6593 -7.00834 -3.68409
151 1 -44.9546 -6.83645 -2.82145
152 1 -44.534 -7.05713 -1.94195
153 1 -43.6607 -7.25112 -1.44799
154 1 -42.7936 -7.09311 -1.12094
155 1 -41.8703 -7.11467 -0.898482
156 1 -40.9459 -7.09471 -0.756443
157 1 -40.0287 -7.00143 -0.970774
158 1 -39.1523 -7.32464 -0.994073
159 1 -38.4412 -6.76452 -1.15694
160 1 -37.6686 -6.3531 -1.39466
161 1 -36.8805 -6.12016 -1.78996
162 1 -35.9359 -5.87639 -1.79471
163 1 -35.6501 -4.95799 -1.73301
164 1 -35.1266 -4.1548 -1.64092
165 1 -34.7646 -3.33868 -1.62808
166 1 -34.5728 -2.45823 -1.88819
167 1 -34.874 -1.63837 -1.65708
168 1 -34.5031 -0.767224 -1.50749
169 1 -34.1297 0.112037 -1.31254
170 1 -33.6478 0.814722 -0.887069
171 1 -32.951 1.52108 -0.862278
172 1 -32.196 2.10085 -1.12827
173 1 -31.4182 2.59602 -1.27332
174 1 -30.7458 3.09586 -1.70014
175 1 -30.0611 3.68807 -1.60364
176 1 -29.2593 3.47103 -2.10181
177 1 -28.6241 3.45577 -2.77485
178 1 -27.6845 3.41775 -2.99538
179 1 -26.8466 3.15312 -2.64681
180 1 -25.9599 3.23142 -2.38712
181 1 -25.1249 3.64785 -2.21062
182 1 -24.8105 4.52146 -2.16668
183 1 -24.3335 5.21413 -2.6425
184 1 -24.1379 5.90753 -3.29914
185 1 -23.7954 5.82193 -4.18808
186 1 -23.1833 6.28689 -4.74445
187 1 -23.3799 6.77004 -5.50869
188 1 -23.2373 7.44477 -6.13007
189 1 -23.655 8.03937 -6.62903
190 1 -24.2951 8.2886 -7.35168
191 1 -24.6499 8.63377 -8.10736
192 1 -24.4555 9.46617 -8.66446
193 1 -24.2126 10.3436 -8.52406
194 1 -23.9659 10.8636 -7.80511
195 1 -24.0782 11.6858 -7.33572
196 1 -23.722 12.4719 -7.04711
197 1 -23.2152 13.2386 -7.18773
198 1 -22.9926 13.424 -8.05756
199 1 -22.8361 14.2617 -8.51691
200 1 -21.9461 14.1205 -8.74086
201 1 -21.0712 13.9945 -8.56054
202 1 -20.1822 14.3021 -8.68717
203 1 -19.255 14.4125 -8.69704
204 1 -18.8646 15.1013 -8.23202
205 1 -18.101 15.6458 -8.40021
206 1 -17.3612 16.203 -8.57644
207 1 -16.9046 16.6863 -7.88134
208 1 -16.1752 17.2715 -7.62688
209 1 -15.5396 17.3926 -6.93519
210 1 -14.982 18.1999 -6.86499
211 1 -14.1481 18.6696 -6.56929
212 1 -13.492 19.2517 -6.11527
213 1 -12.7344 19.56 -5.63578
214 1 -11.9892 19.6234 -5.08376
215 1 -11.2076 19.3482 -4.61308
216 1 -10.3291 19.518 -4.29013
217 1 -9.44503 19.5964 -4.13818
218 1 -8.94904 18.8093 -4.01818
219 1 -8.65229 18.244 -3.28889
220 1 -8.82985 18.3372 -2.35026
221 1 -9.14691 17.7044 -1.8168
222 1 -9.6174 17.3865 -1.14004
223 1 -9.55943 17.1259 -0.246053
224 1 -9.79758 17.1882 0.615869
225 1 -9.32966 16.8471 1.37815
226 1 -8.61228 16.279 1.39585
227 1 -8.38399 15.7958 2.16057
228 1 -8.4957 15.4033 3.0575
229 1 -8.3305 15.0323 3.95765
230 1 -7.69096 14.5756 4.52061
231 1 -7.44383 14.3917 5.4303
232 1 -6.6955 13.9196 5.719
233 1 -5.93422 13.5678 6.07772
234 1 -5.03373 13.5956 6.40392
235 1 -4.3904 13.4567 5.70932
236 1 -3.61377 12.9178 5.84765
237 1 -2.70931 12.9396 5.56329
238 1 -2.12426 13.5606 5.15895
239 1 -1.35333 14.0759 5.21846
240 1 -0.59324 14.5867 5.47639
241 1 -0.00827097 15.3428 5.58363
242 1 0.286855 16.2046 5.31504
243 1 0.375883 16.9894 5.83726
244 1 1.19843 17.0211 6.31541
245 1 2.02517 16.8208 6.8167
246 1 2.76795 16.3258 7.1009
247 1 3.59722 15.7845 7.29816
248 1 4.27918 15.1327 7.22383
249 1 5.10607 14.7474 7.14535
250 1 5.54099 15.5625 7.35868
251 1 6.38058 15.7597 7.74772
252 1 6.87664 16.3898 8.19995
253 1 6.91242 17.3555 8.29911
254 1 7.12233 18.2988 8.3313
255 1 7.40753 19.0831 7.95204
256 1 8.06356 19.6208 7.47249
257 1 8.36429 20.5022 7.28494
258 1 8.92804 21.2631 7.28255
259 1 9.79448 21.6592 7.35629
260 1 10.6709 22.0405 7.52007
261 1 11.5721 22.0617 7.66478
262 1 12.4583 21.9858 8.04258
263 1 12.8997 21.1526 7.89439
264 1 12.9503 20.2503 7.67856
265 1 13.4731 19.4866 7.70218
266 1 14.1891 19.2047 7.19911
267 1 14.7573 18.9212 6.46346
268 1 15.4698 19.0452 5.95142
269 1 16.1597 19.1805 5.26128
270 1 16.2057 19.3098 4.35036
271 1 16.6413 19.3439 3.44996
272 1 17.2344 18.6159 3.32483
273 1 18.1223 18.4428 3.15499
274 1 18.887 19.0288 2.9351
275 1 19.69 19.4031 2.59918
276 1 20.2363 20.1318 2.768
277 1 20.9839 20.0148 3.24005
278 1 21.7506 19.6412 3.74204
279 1 22.5102 20.1122 4.04735
280 1 23.3471 20.3815 4.17435
281 1 24.1833 20.7629 4.28619
282 1 24.5697 21.3633 3.66627
283 1 25.4957 21.2582 4.06803
284 1 25.5033 20.7109 4.8403
285 1 26.1014 20.1566 5.25582
286 1 26.5582 19.6985 4.53687
287 1 26.5335 19.3938 3.63791
288 1 25.8207 18.8579 3.24988
289 1 26.2914 17.9406 3.07677
290 1 26.7647 17.1522 3.25885
291 1 27.4657 16.542 3.20313
292 1 28.0904 15.8707 3.40218
293 1 28.9628 15.8385 3.70394
294 1 29.7332 16.2698 3.4299
295 1 30.4318 16.3342 2.83009
296 1 31.0237 16.1201 2.18226
297 1 31.6853 15.8948 1.54987
298 1 32.6062 15.7289 1.44845
299 1 33.4424 15.3355 1.35843
300 1 34.2793 14.8745 1.43175
301 1 35.0597 14.2785 1.29401
302 1 35.3501 13.4796 0.862119
303 1 35.463 12.5895 1.18766
304 1 35.5561 11.8326 1.73059
305 1 36.1087 11.1739 2.15672
306 1 36.9069 10.7026 2.2787
307 1 37.7927 10.3148 2.39227
308 1 38.7083 10.2938 2.15885
309 1 39.4134 10.4391 1.54156
310 1 40.0508 9.882 1.09166
311 1 40.6391 9.52214 0.466523
312 1 41.3884 9.10222 0.0968118
313 1 42.223 9.13954 -0.363435
314 1 42.6902 9.63434 -0.989243
315 1 42.6711 10.5164 -1.41478
316 1 42.5481 11.434 -1.57022
317 1 42.3957 12.2013 -2.06396
318 1 41.8757 12.0751 -2.86066
319 1 41.4177 11.5054 -3.465
320 1 40.9016 11.1107 -4.17132
321 1 41.2346 10.6612 -4.885
322 1 41.8093 10.5088 -5.59994
323 1 42.6326 10.2711 -5.99435
324 1 42.6091 9.89111 -6.89433
325 1 42.4951 9.36935 -7.67964
326 1 42.5086 8.4899 -8.14743
327 1 43.1517 7.92659 -7.74593
328 1 43.712 7.69901 -7.07697
329 1 44.0337 7.76749 -6.24208
330 1 44.2822 7.88625 -5.37067
331 1 44.6554 7.796 -4.54255
332 1 45.2055 7.61514 -3.72218
333 1 45.7585 7.73966 -2.99738
334 1 46.5489 7.72932 -2.5342
335 1 46.9385 8.04663 -1.66371
336 1 47.5178 8.71372 -1.38026
337 1 48.0953 9.12563 -0.751096
338 1 48.937 9.56705 -0.66172
339 1 49.3405 10.378 -0.673087
340 1 49.8378 11.0566 -1.06916
341 1 50.4354 11.5578 -1.5922
342 1 50.3659 12.5197 -1.63893
343 1 49.6523 13.1147 -1.86949
344 1 49.2153 13.63 -2.52225
345 1 48.8542 13.8801 -3.32115
346 1 48.2594 14.0817 -4.02793
347 1 47.5457 14.2839 -4.61303
348 1 46.8092 13.7037 -5.01035
349 1 46.2115 13.2952 -5.61909
350 1 45.5375 13.0722 -6.30515
351 1 45.9976 13.4155 -7.00844
352 1 46.2223 14.2561 -6.69464
353 1 46.7948 14.898 -7.06093
354 1 47.575 15.3851 -6.90097
355 1 47.9901 16.1972 -6.96675
356 1 47.716 17.0385 -6.5179
357 1 48.2867 17.6397 -6.1239
358 1 48.872 18.2334 -5.6122
359 1 48.823 18.0385 -4.70442
360 1 49.113 18.0682 -3.81743
361 1 48.4586 18.3906 -3.20605
362 1 49.0552 19.1164 -3.09141
363 1 49.6342 19.6309 -2.47785
364 1 49.6652 20.1715 -1.6467
365 1 49.9036 21.0724 -1.47878
366 1 50.6922 21.341 -1.02455
367 1 50.9788 21.4173 -0.106392
368 1 50.6445 21.104 0.734049
369 1 50.0347 20.9961 1.45694
370 1 49.1452 20.5511 1.60682
371 1 48.852 19.9997 2.26958
372 1 48.2164 19.4808 2.69437
373 1 47.4516 19.1686 3.20963
374 1 46.9465 19.7917 3.72106
375 1 47.1 20.6455 4.16418
376 1 46.7389 20.9691 4.9157
377 1 46.298 21.7942 5.00752
378 1 46.0278 22.6471 5.19222
379 1 45.9833 23.5961 4.91468
380 1 46.0232 24.2897 4.32625
381 1 46.9301 24.0254 4.44736
382 1 47.8173 23.7401 4.40296
383 1 48.4732 23.1893 4.03831
384 1 49.3136 23.2575 3.61524
385 1 50.1655 22.9492 3.344
386 1 51.0916 22.8908 3.35265
387 1 51.9273 23.0508 2.81785
388 1 51.6253 23.5778 2.11955
389 1 52.1117 23.7669 1.29063
390 1 52.8769 24.1755 0.918857
391 1 53.363 24.923 0.622947
392 1 53.8206 25.5895 1.07822
393 1 54.52 26.2392 1.27607
394 1 55.4226 26.1247 0.939875
395 1 56.1334 25.9581 0.377662
396 1 56.4864 25.0401 0.285671
397 1 56.9761 24.3865 -0.14974
398 1 57.8524 24.1728 -0.128424
399 1 58.6665 23.6817 -0.208354
400 1 59.1735 23.6835 -0.939491
401 1 58.9606 23.3436 -1.84579
402 1 58.4697 22.8432 -2.50237
403 1 58.9473 22.8263 -3.34021
404 1 59.4373 22.6215 -4.10098
405 1 60.2721 22.9324 -3.6943
406 1 61.1457 22.8367 -3.94243
407 1 61.842 23.0619 -4.54531
408 1 62.4618 23.2521 -5.26077
409 1 63.2706 22.827 -5.06714
410 1 63.8699 22.1344 -4.7879
411 1 64.6967 21.5998 -4.69211
412 1 65.3709 21.3566 -5.31874
413 1 65.8815 20.7605 -5.79372
414 1 66.2522 20.7923 -6.63355
415 1 65.979 20.7613 -7.49046
416 1 66.2166 20.6907 -8.39594
417 1 65.6943 20.6042 -9.16187
418 1 65.0091 21.1085 -8.84954
419 1 64.1174 21.12 -8.58423
420 1 63.2248 20.8424 -8.66696
421 1 62.5576 20.1525 -8.56358
422 1 62.3191 19.252 -8.65654
423 1 62.3362 18.2711 -8.64992
424 1 61.9245 17.7396 -8.00985
425 1 62.4627 17.2997 -7.29028
426 1 63.1646 16.9376 -6.77347
427 1 64.1261 16.8345 -6.78458
428 1 64.634 16.0678 -7.04897
429 1 64.8898 15.3101 -7.49697
430 1 64.8667 14.3778 -7.5895
431 1 64.3478 13.677 -7.96624
432 1 64.9734 13.6788 -8.70744
433 1 65.4647 14.2537 -9.15367
434 1 65.4091 15.1332 -9.48216
435 1 65.274 15.9581 -9.73648
436 1 64.7421 16.6332 -9.26048
437 1 65.1853 17.0509 -8.60555
438 1 65.8288 17.6935 -8.34442
439 1 66.3976 18.3082 -8.68395
440 1 66.8659 19.0173 -8.30142
441 1 67.0922 19.6958 -8.88158
442 1 67.2377 20.3783 -9.53348
443 1 68.1755 20.3058 -9.79181
444 1 68.512 21.0095 -10.248
445 1 68.5209 21.2835 -11.1648
446 1 68.6427 20.967 -12.0276
447 1 68.3895 20.4669 -12.82
448 1 67.9162 20.2537 -13.6582