ITEM: TIMESTEP
780000
ITEM: NUMBER OF ATOMS
512
ITEM: BOX BOUNDS mm mm mm
-2.5600000000000000e+02 2.5600000000000000e+02
-2.5600000000000000e+02 2.5600000000000000e+02
-2.5600000000000000e+02 2.5600000000000000e+02
ITEM: ATOMS id type x y z
1 1 -91.7972 -1.19335 18.9745
2 1 -91.784 -1.78434 18.2878
3 1 -91.2103 -2.22674 17.7348
4 1 -90.5566 -2.53226 17.2127
5 1 -90.7087 -3.40274 17.4025
6 1 -91.0001 -4.32003 17.6038
7 1 -90.8075 -5.11227 17.9974
8 1 -90.8454 -5.81396 17.3357
9 1 -89.9594 -5.93756 17.0987
10 1 -90.1213 -5.20131 16.489
11 1 -89.2419 -5.40339 16.3564
12 1 -89.553 -5.92846 15.6724
13 1 -89.9938 -6.24538 14.8773
14 1 -89.6129 -5.41444 14.6903
15 1 -89.7794 -5.55877 13.7881
16 1 -89.9905 -6.09637 12.9351
17 1 -89.1243 -6.40446 13.1544
18 1 -89.3127 -7.22321 12.7788
19 1 -88.4808 -7.22724 13.2054
20 1 -88.4726 -6.84446 14.0448
21 1 -88.4544 -6.47129 14.8962
22 1 -88.1005 -5.60113 15.0941
23 1 -87.3792 -6.05626 15.5031
24 1 -87.3567 -6.6607 16.2264
25 1 -87.3891 -7.33803 16.9178
26 1 -88.0633 -6.75539 17.1899
27 1 -88.7721 -6.27625 16.7813
28 1 -88.6411 -5.88895 17.6044
29 1 -88.8352 -4.99408 17.4403
30 1 -88.989 -4.35743 16.773
31 1 -89.4109 -4.25574 15.8819
32 1 -90.2752 -3.82808 15.9501
33 1 -91.227 -3.63572 15.9915
34 1 -91.6533 -2.83552 16.2023
35 1 -90.853 -2.4578 15.9026
36 1 -90.4545 -1.7554 16.4089
37 1 -89.8921 -1.00322 16.2636
38 1 -89.3505 -1.20476 15.5075
39 1 -89.6749 -1.82799 14.8279
40 1 -89.4614 -2.14093 13.94
41 1 -89.0355 -1.62351 13.364
42 1 -88.1764 -1.73399 13.0126
43 1 -87.68 -2.58127 13.3113
44 1 -87.1557 -1.79156 13.1654
45 1 -86.3844 -1.65524 13.7583
46 1 -85.5996 -1.39048 14.2536
47 1 -85.1544 -0.668903 13.776
48 1 -85.5776 -0.985435 12.9668
49 1 -84.6643 -0.995843 12.8351
50 1 -84.295 -0.668153 12.0919
51 1 -83.7082 -0.339469 12.758
52 1 -82.9698 0.204339 12.7364
53 1 -82.2315 0.78062 12.8531
54 1 -82.3606 1.5415 12.348
55 1 -82.2468 1.87682 11.4494
56 1 -82.1701 2.6316 10.925
57 1 -81.8684 3.50794 11.2777
58 1 -80.9181 3.31611 11.4333
59 1 -80.7085 4.23665 11.2706
60 1 -80.1848 4.87898 10.7956
61 1 -79.3848 4.4474 10.4665
62 1 -79.3521 3.78383 9.80022
63 1 -79.1833 4.45457 9.14043
64 1 -78.8991 3.61916 8.79881
65 1 -78.2899 4.07592 8.20384
66 1 -78.1684 3.1685 7.9743
67 1 -77.9659 2.27776 8.28808
68 1 -78.0562 1.36427 8.42017
69 1 -78.1999 1.24021 9.32366
70 1 -77.4605 1.78693 9.43618
71 1 -77.2639 2.57742 8.9065
72 1 -76.5177 3.14356 8.89396
73 1 -76.5082 4.07949 8.98388
74 1 -77.0887 4.78882 8.66799
75 1 -77.3253 4.78634 7.75651
76 1 -76.5226 5.33571 7.84133
77 1 -75.7239 5.89245 7.85845
78 1 -74.9915 5.80454 8.43709
79 1 -74.6723 5.39104 7.64331
80 1 -74.8469 5.99359 6.92667
81 1 -74.8474 5.82829 5.99328
82 1 -74.7359 5.88259 5.03741
83 1 -75.4578 6.22187 4.44516
84 1 -75.0292 6.80083 3.76571
85 1 -74.2987 6.55523 3.33601
86 1 -74.7196 5.73338 3.44477
87 1 -74.0065 5.57938 2.76392
88 1 -73.5189 4.77338 3.09998
89 1 -73.9082 4.16253 3.72262
90 1 -73.2901 3.54461 3.49308
91 1 -72.8995 2.769 3.1967
92 1 -73.5093 2.24023 2.77341
93 1 -73.6311 2.84132 2.08465
94 1 -73.6546 2.88279 1.13165
95 1 -73.9822 2.05846 0.782408
96 1 -73.6573 1.57145 1.52151
97 1 -72.7146 1.41923 1.71837
98 1 -72.0461 0.718214 1.5378
99 1 -71.3626 1.07252 1.05143
100 1 -71.7293 0.815402 0.228998
101 1 -72.2633 0.0559816 0.373583
102 1 -71.8898 -0.537944 -0.191469
103 1 -72.0468 -0.376653 -1.09817
104 1 -71.3395 0.27287 -0.957982
105 1 -70.4379 0.22279 -0.472548
106 1 -70.4791 0.847133 0.339855
107 1 -70.3627 0.283402 1.05999
108 1 -69.9482 -0.453303 0.569007
109 1 -69.0333 -0.586747 0.437035
110 1 -68.5189 -0.631629 -0.349704
111 1 -68.0504 -0.205888 -1.02112
112 1 -67.9112 -0.0954689 -1.96673
113 1 -67.0991 0.112155 -2.40973
114 1 -67.8206 0.69782 -2.65684
115 1 -68.1649 1.26131 -2.0121
116 1 -68.477 2.11303 -1.85474
117 1 -68.5694 2.93201 -2.19636
118 1 -68.3659 2.78416 -3.10657
119 1 -67.9185 3.166 -3.79622
120 1 -68.3806 4.02187 -4.00803
121 1 -68.3788 4.91268 -3.62361
122 1 -69.2595 4.7402 -3.89602
123 1 -69.2656 4.62917 -2.95227
124 1 -69.2532 4.88275 -2.03813
125 1 -68.8792 5.57203 -2.50469
126 1 -68.2661 6.27328 -2.79863
127 1 -67.5868 6.93279 -2.85236
128 1 -66.6838 7.07447 -3.13982
129 1 -66.0631 6.61498 -3.74458
130 1 -65.7745 6.21978 -4.57624
131 1 -65.3986 5.86719 -5.31474
132 1 -65.542 6.45422 -6.08095
133 1 -66.2895 6.30181 -6.63657
134 1 -66.1453 7.07063 -7.10048
135 1 -65.3127 6.88153 -7.54583
136 1 -64.3864 7.0736 -7.5466
137 1 -64.019 7.52908 -8.33929
138 1 -64.0887 7.33465 -9.22356
139 1 -63.828 8.21776 -9.25144
140 1 -64.4129 8.68939 -8.62623
141 1 -65.3308 8.73736 -8.91641
142 1 -65.5998 8.73415 -8.00418
143 1 -65.6633 9.3149 -7.23951
144 1 -65.746 9.89901 -7.98792
145 1 -64.7618 9.953 -7.99305
146 1 -64.0654 10.5684 -7.65915
147 1 -63.761 11.4016 -8.04697
148 1 -63.2124 10.7763 -8.38789
149 1 -62.6777 11.4969 -8.14954
150 1 -62.1769 12.1445 -7.6952
151 1 -61.5206 11.7174 -8.24479
152 1 -61.1371 11.0975 -7.67706
153 1 -60.6691 10.3253 -7.93599
154 1 -59.8138 10.1838 -8.27272
155 1 -59.3352 10.4718 -9.046
156 1 -58.4672 10.0525 -9.19028
157 1 -57.676 9.99926 -8.71856
158 1 -56.8454 9.80348 -8.42853
159 1 -55.9489 9.85072 -8.34583
160 1 -55.3797 9.69186 -7.60768
161 1 -54.5463 9.28557 -7.49249
162 1 -53.636 9.03452 -7.73748
163 1 -53.13 9.54057 -8.42931
164 1 -52.6185 9.69743 -7.62551
165 1 -52.582 10.1475 -6.80602
166 1 -51.9158 10.4207 -6.2041
167 1 -51.6006 9.52441 -6.3133
168 1 -50.8802 9.05897 -6.74302
169 1 -50.133 9.54206 -6.40883
170 1 -49.2904 9.39109 -6.04018
171 1 -48.4161 9.61072 -6.36467
172 1 -47.4938 9.39555 -6.3696
173 1 -46.8177 9.48449 -6.93476
174 1 -46.0095 9.03915 -6.92789
175 1 -45.3768 9.76582 -6.97511
176 1 -44.799 9.48694 -6.2854
177 1 -44.3473 9.42175 -5.50771
178 1 -43.924 10.2873 -5.32391
179 1 -43.1045 10.499 -5.5888
180 1 -42.6946 9.6585 -5.80359
181 1 -42.7657 9.02772 -6.46492
182 1 -42.6907 8.20789 -6.05955
183 1 -42.8148 7.81606 -5.22537
184 1 -43.2964 7.63549 -4.43356
185 1 -42.612 7.06003 -4.08525
186 1 -41.857 6.55506 -4.04261
187 1 -41.0446 6.25084 -3.7015
188 1 -40.8763 6.04509 -4.5438
189 1 -40.288 6.00341 -5.27136
190 1 -39.469 6.08847 -4.76255
191 1 -39.3456 7.0281 -4.70857
192 1 -39.2511 7.94592 -5.12931
193 1 -38.5722 8.2482 -5.717
194 1 -37.833 8.70628 -6.26224
195 1 -37.0438 9.08502 -6.5195
196 1 -36.641 9.06757 -7.37664
197 1 -36.0423 9.72912 -7.8177
198 1 -35.189 9.61094 -8.03577
199 1 -34.4417 10.1489 -7.70439
200 1 -33.5456 9.916 -7.68064
201 1 -33.6529 9.02113 -7.40513
202 1 -33.2301 8.42654 -8.05901
203 1 -33.5502 7.52474 -7.95648
204 1 -33.3615 7.70213 -8.88234
205 1 -33.7783 6.85374 -8.75326
206 1 -34.5655 6.78769 -8.1853
207 1 -34.1965 6.75449 -7.3513
208 1 -33.3927 6.76682 -6.89472
209 1 -32.7805 7.23203 -6.42158
210 1 -32.6468 7.4431 -5.54062
211 1 -31.8704 6.86861 -5.56529
212 1 -31.0118 6.593 -5.14113
213 1 -30.3407 7.17488 -4.84632
214 1 -30.0989 7.19521 -3.90713
215 1 -29.2154 7.54544 -4.12611
216 1 -28.2695 7.64038 -4.24713
217 1 -27.58 7.89553 -4.78375
218 1 -26.9754 8.1535 -4.06545
219 1 -26.9512 8.62189 -3.30716
220 1 -27.5676 8.2477 -2.73863
221 1 -26.806 7.91791 -2.36855
222 1 -25.939 7.7065 -2.70613
223 1 -25.0093 7.53763 -2.6238
224 1 -24.5848 6.74464 -2.25154
225 1 -23.8042 7.31922 -2.49328
226 1 -23.1561 7.27076 -1.811
227 1 -22.2338 7.27257 -1.91062
228 1 -22.4365 7.36437 -1.02642
229 1 -22.6229 8.26079 -0.814745
230 1 -22.5294 8.98968 -0.241909
231 1 -21.877 9.2066 -0.932908
232 1 -21.3792 8.413 -0.723448
233 1 -20.4672 8.67412 -0.820406
234 1 -19.5354 8.55247 -0.658732
235 1 -18.6394 8.77477 -0.631052
236 1 -18.5542 7.91882 -0.411931
237 1 -17.749 7.48613 -0.257695
238 1 -17.3104 7.44996 0.536026
239 1 -17.2708 6.68501 1.15911
240 1 -16.4089 6.70082 0.705642
241 1 -16.7078 5.78859 0.794422
242 1 -17.4346 5.57386 1.40434
243 1 -17.7355 5.93245 2.22768
244 1 -17.499 5.30742 2.87591
245 1 -17.6942 6.0207 3.57898
246 1 -17.8701 6.75416 3.02794
247 1 -17.4035 7.44384 2.52804
248 1 -17.1277 8.09201 1.92655
249 1 -16.6479 8.47818 1.19037
250 1 -15.9176 8.97953 1.05391
251 1 -15.9241 8.95143 1.96212
252 1 -15.8797 9.8158 1.62174
253 1 -15.0402 10.2171 1.57632
254 1 -14.3831 10.6405 2.13712
255 1 -13.9526 10.8006 2.95526
256 1 -13.153 10.8597 2.41465
257 1 -12.4281 11.2487 2.84981
258 1 -12.353 12.1812 3.03215
259 1 -11.6132 12.4659 3.51699
260 1 -10.6795 12.6086 3.37608
261 1 -9.83164 12.4383 3.63422
262 1 -8.98245 12.3874 3.28183
263 1 -8.42993 13.0295 2.91156
264 1 -7.95331 13.0024 3.6693
265 1 -7.61544 13.8711 3.56314
266 1 -6.93471 14.3703 3.16805
267 1 -6.50448 14.6291 2.34338
268 1 -5.62722 14.8517 2.09544
269 1 -4.94846 15.2884 2.60282
270 1 -4.40952 16.0464 2.55461
271 1 -3.54448 15.9177 2.13671
272 1 -3.25806 16.4274 1.40197
273 1 -2.30811 16.7043 1.40288
274 1 -1.90254 16.9815 0.62522
275 1 -1.45724 17.7682 0.896135
276 1 -0.662736 17.3681 0.74275
277 1 0.224288 16.9888 0.616075
278 1 0.34348 16.2034 1.14278
279 1 -0.298154 15.5947 0.716304
280 1 0.406071 14.9601 0.407121
281 1 0.64841 14.9435 -0.515655
282 1 1.30188 15.3039 -1.07925
283 1 1.75358 14.6121 -1.57875
284 1 2.31384 14.1104 -1.01543
285 1 2.92383 13.5971 -1.50421
286 1 3.83877 13.6277 -1.00454
287 1 3.21725 13.0082 -0.597308
288 1 4.06195 12.5797 -0.839438
289 1 5.06371 12.4004 -0.880535
290 1 5.68907 12.28 -0.145361
291 1 5.32818 12.7543 0.608658
292 1 6.19675 12.3586 0.771752
293 1 6.70243 12.0175 0.0880632
294 1 7.39299 11.4545 -0.338527
295 1 8.3196 11.4027 -0.00867227
296 1 9.12509 11.6971 -0.307096
297 1 8.61846 12.4373 -0.0432823
298 1 8.30445 12.8549 -0.849404
299 1 8.95449 13.1481 -1.40715
300 1 8.88852 13.8477 -2.07384
301 1 9.44469 13.6073 -2.74239
302 1 9.97626 13.0336 -2.18339
303 1 10.149 12.4391 -1.41725
304 1 10.447 12.8017 -0.600875
305 1 11.0588 13.0839 -1.23417
306 1 11.8592 13.5505 -1.46392
307 1 12.7079 13.2042 -1.23305
308 1 13.5308 13.1559 -0.749744
309 1 14.421 13.1038 -0.526386
310 1 14.6598 13.0213 0.388575
311 1 14.7026 12.4389 1.10338
312 1 15.3212 11.9639 1.55656
313 1 16.1023 11.4438 1.29832
314 1 16.3138 10.5754 0.960755
315 1 16.1963 10.3064 0.0317815
316 1 15.8921 9.50969 -0.335224
317 1 16.3812 8.81669 0.20804
318 1 17.1179 9.31194 0.568512
319 1 17.4023 8.37663 0.302703
320 1 17.339 7.63246 0.848514
321 1 17.8243 7.11338 1.48279
322 1 17.9583 6.46331 0.821179
323 1 18.7737 6.24164 0.372186
324 1 18.9049 6.90453 -0.265938
325 1 19.4163 7.6168 0.0721871
326 1 20.2363 7.7601 -0.320477
327 1 20.9847 7.70046 -0.934094
328 1 21.3573 8.24433 -0.221516
329 1 21.7681 9.04451 0.0432547
330 1 22.5001 8.41774 0.118069
331 1 23.4353 8.46596 -0.167154
332 1 23.3381 7.58014 0.0594841
333 1 24.2678 7.44033 0.369625
334 1 23.9493 7.12511 1.25967
335 1 24.0352 7.28133 2.18237
336 1 23.7482 8.13303 2.46177
337 1 23.4534 8.94819 2.07923
338 1 24.2651 8.69342 1.57348
339 1 24.7573 8.29989 2.33381
340 1 25.5153 7.8385 2.68501
341 1 26.4141 7.61286 2.4228
342 1 26.5179 6.70179 2.73751
343 1 27.4091 6.33564 2.70201
344 1 28.1834 5.85273 2.56867
345 1 28.9869 5.65775 3.0238
346 1 29.593 4.99407 2.79715
347 1 30.4565 4.75227 2.57379
348 1 31.2272 5.19884 2.1851
349 1 30.8998 4.42224 1.79592
350 1 30.9615 3.84675 1.03503
351 1 31.4738 3.06771 0.913932
352 1 32.4535 3.0487 0.830964
353 1 32.7573 2.81273 1.68603
354 1 33.6783 2.98937 1.94293
355 1 34.1102 2.3686 2.47467
356 1 34.7421 3.0701 2.67882
357 1 34.4954 3.83671 3.15872
358 1 35.4128 3.71086 3.14043
359 1 36.2041 3.78955 2.64007
360 1 36.5747 3.048 3.0393
361 1 35.9192 2.74909 3.61918
362 1 36.0789 1.96537 3.17846
363 1 36.9226 1.58419 3.04549
364 1 37.4027 2.30328 2.45794
365 1 38.0055 1.68928 2.76271
366 1 38.646 1.82727 3.44448
367 1 39.2679 1.29493 2.95413
368 1 39.8287 0.624628 2.61487
369 1 39.8613 -0.265942 2.50614
370 1 40.7359 -0.328238 2.79289
371 1 41.2774 -0.377073 2.05031
372 1 42.2785 -0.30582 2.05784
373 1 43.1132 -0.409422 2.54175
374 1 43.437 -1.25768 2.17445
375 1 44.2408 -0.763182 2.35346
376 1 44.6506 -1.59071 2.37003
377 1 45.4787 -1.97591 2.19513
378 1 46.2036 -1.69526 2.72255
379 1 46.9265 -2.23555 2.90309
380 1 47.828 -2.63465 3.10049
381 1 48.1706 -3.50371 2.92321
382 1 48.9195 -4.04318 2.56839
383 1 49.5989 -3.29369 2.56184
384 1 50.5002 -3.47303 2.58946
385 1 51.4337 -3.35003 2.72115
386 1 52.363 -3.4125 2.9909
387 1 52.232 -4.09316 3.59233
388 1 52.9165 -3.81621 4.26162
389 1 52.2541 -3.18455 4.0895
390 1 52.498 -2.28922 3.9007
391 1 51.7765 -1.64407 3.81218
392 1 52.0407 -1.54446 4.70914
393 1 52.8008 -2.09323 4.96301
394 1 53.7199 -2.14684 4.97657
395 1 54.5697 -1.9281 5.39194
396 1 55.1994 -2.58725 5.40776
397 1 55.7644 -2.40971 6.13654
398 1 56.2462 -1.58717 6.09918
399 1 57.2507 -1.37465 5.93121
400 1 58.1224 -1.52908 6.15783
401 1 58.3723 -0.951258 5.46297
402 1 58.6997 -0.438499 4.74508
403 1 59.283 -0.232039 4.02156
404 1 58.7949 0.566826 4.32354
405 1 58.2841 1.172 3.80271
406 1 57.8423 1.41284 4.65393
407 1 57.734 1.13252 5.52366
408 1 57.1972 1.64256 6.12976
409 1 57.0243 2.41729 6.57118
410 1 57.9508 2.23842 6.72832
411 1 58.152 1.34209 6.9834
412 1 58.6158 0.598166 6.70546
413 1 59.5728 0.506099 6.97281
414 1 59.624 -0.153292 6.33917
415 1 59.9362 -0.49333 5.53353
416 1 60.8129 -0.239098 5.74804
417 1 61.1614 0.364578 6.30943
418 1 62.0349 0.636031 6.62547
419 1 62.478 1.23052 6.00939
420 1 63.188 1.79154 5.78907
421 1 63.7401 2.55829 6.03394
422 1 64.5189 3.01535 6.35599
423 1 65.4122 2.6088 6.22672
424 1 64.6968 2.14568 5.92272
425 1 64.9108 1.58625 5.20174
426 1 65.6438 1.34576 4.63566
427 1 66.5195 1.67705 4.79307
428 1 66.9932 1.08613 5.33186
429 1 67.5854 0.683554 4.73106
430 1 67.776 -0.213081 4.611
431 1 67.6571 -1.0479 4.21615
432 1 68.2829 -1.6644 3.74841
433 1 68.8744 -2.41716 3.57927
434 1 68.5566 -3.21849 3.95984
435 1 68.8705 -3.90568 3.43806
436 1 69.497 -3.34413 2.91642
437 1 69.9871 -2.6045 3.28651
438 1 70.2772 -2.84577 2.39777
439 1 70.9864 -2.60531 1.88006
440 1 71.357 -3.25111 2.42463
441 1 72.2074 -3.56423 2.63868
442 1 71.9182 -4.26962 2.01656
443 1 72.6189 -4.45803 1.31838
444 1 73.2001 -4.72394 2.0419
445 1 73.1861 -3.77693 2.06052
446 1 73.8456 -3.35628 2.59471
447 1 74.7052 -2.95421 2.76065
448 1 74.7127 -2.38345 1.97844
449 1 75.4915 -2.86482 1.86655
450 1 76.3239 -2.92435 2.26058
451 1 77.2005 -3.26332 2.42032
452 1 77.4515 -2.37068 2.41429
453 1 76.7959 -1.69666 2.5308
454 1 77.2994 -1.23307 3.21693
455 1 76.8286 -0.452801 3.4147
456 1 76.3279 -0.490523 2.55873
457 1 76.0188 0.32043 2.41827
458 1 75.2574 0.673469 2.89044
459 1 75.5602 1.23765 3.60597
460 1 75.7393 2.00278 4.18375
461 1 76.4695 1.74606 4.7416
462 1 77.0751 1.48762 5.37541
463 1 77.2884 1.23656 6.28364
464 1 77.4811 0.449827 6.68628
465 1 78.3316 0.706912 6.38162
466 1 79.0376 1.40201 6.30446
467 1 79.4708 1.66906 5.51555
468 1 79.489 2.6286 5.64518
469 1 78.745 3.15032 5.3873
470 1 79.5027 3.6974 5.27743
471 1 80.3076 3.91503 5.71241
472 1 80.6302 4.75057 6.05741
473 1 79.8054 5.07096 5.70123
474 1 80.411 5.0619 4.94261
475 1 81.3158 5.28902 4.76227
476 1 80.8922 6.04457 4.36613
477 1 80.8765 6.8155 4.87219
478 1 81.3891 7.51559 5.25928
479 1 80.4949 7.93367 5.17595
480 1 79.8523 8.07561 5.82165
481 1 79.9158 8.96134 6.12057
482 1 80.6538 9.28805 6.59697
483 1 80.6571 10.2462 6.54264
484 1 81.4069 10.7669 6.44811
485 1 81.9452 10.8028 7.21895
486 1 82.5737 10.232 6.82391
487 1 82.9511 10.6461 7.5376
488 1 83.9068 10.6412 7.56177
489 1 84.2429 11.0946 8.27142
490 1 83.7683 11.5669 8.91541
491 1 82.9581 11.861 9.30748
492 1 83.2479 12.7411 9.47785
493 1 82.4782 13.2671 9.22018
494 1 81.6042 13.0233 9.62323
495 1 81.6246 12.3384 10.2871
496 1 81.2429 11.5225 10.3118
497 1 80.7799 10.7208 10.0117
498 1 80.0495 10.2884 10.3742
499 1 80.3264 9.75195 9.61422
500 1 79.4961 10.2483 9.54916
501 1 79.1591 10.4479 8.64831
502 1 79.213 11.1918 8.17251
503 1 78.3714 11.4622 8.14326
504 1 77.5821 11.4325 8.65862
505 1 77.2752 11.9288 9.33784
506 1 76.6291 12.1056 8.59436
507 1 76.0988 12.2305 7.82138
508 1 75.9248 12.7703 7.10587
509 1 75.4419 13.5825 7.14954
510 1 75.9451 13.82 6.36443
511 1 75.5135 14.726 6.44876
512 1 75.0224 14.662 5.65177
ITEM: TIMESTEP
790000
ITEM: NUMBER OF ATOMS
512
ITEM: BOX BOUNDS mm mm mm
-2.5600000000000000e+02 2.5600000000000000e+02
-2.5600000000000000e+02 2.5600000000000000e+02
-2.5600000000000000e+02 2.5600000000000000e+02
ITEM: ATOMS id type x y z
1 1 -95.7269 -4.83957 19.2331
2 1 -95.3463 -5.08246 18.4111
3 1 -94.686 -5.53827 17.8671
4 1 -94.2542 -4.77063 17.6503
5 1 -94.6971 -3.90069 17.59
6 1 -94.1962 -3.07238 17.6443
7 1 -93.6145 -3.22022 16.9572
8 1 -92.9203 -3.80289 16.8776
9 1 -92.4719 -3.79584 17.6885
10 1 -91.976 -4.49798 18.0258
11 1 -92.0729 -5.34104 17.6279
12 1 -91.2863 -5.22686 17.1615
13 1 -91.0154 -4.45713 16.7296
14 1 -90.1493 -4.42421 16.5185
15 1 -90.6029 -3.65322 16.2058
16 1 -89.7906 -3.11339 16.2481
17 1 -89.0914 -2.61469 15.8896
18 1 -89.3625 -2.75046 15.0004
19 1 -88.5694 -3.12944 14.5477
20 1 -89.0932 -3.78938 15.0227
21 1 -88.9177 -4.77022 15.141
22 1 -87.977 -4.84935 14.9762
23 1 -87.3739 -5.19405 14.3186
24 1 -87.7662 -5.42699 13.5266
25 1 -88.2713 -5.78918 12.7812
26 1 -88.1789 -5.61593 11.8805
27 1 -88.9883 -5.12964 11.8347
28 1 -88.5292 -4.24961 11.6722
29 1 -87.9533 -3.90159 10.9753
30 1 -87.1368 -3.64022 10.6347
31 1 -86.9515 -2.84845 10.276
32 1 -87.1162 -1.87689 10.2981
33 1 -86.5574 -1.17638 10.158
34 1 -87.0435 -0.384863 10.0658
35 1 -87.8208 -0.00665266 10.4748
36 1 -88.0954 0.608152 9.80948
37 1 -87.2163 0.952631 9.94292
38 1 -86.471 0.622291 9.49428
39 1 -85.9902 1.46184 9.63358
40 1 -85.9458 2.33466 9.94014
41 1 -85.7646 2.60509 9.01954
42 1 -85.6383 2.13728 8.18446
43 1 -84.7176 2.20484 8.10447
44 1 -83.8708 2.65633 7.97251
45 1 -84.6014 3.22842 8.17678
46 1 -84.1662 3.35194 7.37714
47 1 -83.5756 2.90208 6.85658
48 1 -82.8006 3.14753 7.39802
49 1 -82.2608 3.85535 7.04221
50 1 -81.3529 3.99631 7.22434
51 1 -81.1868 3.25138 6.72464
52 1 -81.4774 2.95777 5.8748
53 1 -81.3694 2.7395 4.98306
54 1 -81.7099 1.8932 5.40567
55 1 -82.5153 1.4004 5.79598
56 1 -82.4668 0.462753 5.84549
57 1 -81.7163 0.607115 5.37092
58 1 -81.0374 1.10834 4.97882
59 1 -80.4753 0.920043 5.76316
60 1 -80.3229 0.0767197 6.10205
61 1 -79.4897 0.0037649 6.53289
62 1 -79.8668 0.348496 7.32754
63 1 -79.2065 1.05531 7.3247
64 1 -78.457 1.49702 7.68135
65 1 -77.8331 1.70417 7.01182
66 1 -77.1126 2.1959 6.71797
67 1 -77.1865 2.38229 7.63859
68 1 -76.985 3.15747 8.15508
69 1 -76.5649 3.75838 8.78336
70 1 -76.9252 4.56014 9.05436
71 1 -77.2526 4.07646 9.78947
72 1 -76.6648 3.27308 9.84415
73 1 -76.4959 2.6117 9.21628
74 1 -75.6965 2.26992 8.81462
75 1 -75.1461 2.98648 9.11538
76 1 -74.4344 2.67656 8.52323
77 1 -74.7086 1.97393 7.95941
78 1 -74.6619 2.63908 7.27052
79 1 -74.6704 3.13626 6.46987
80 1 -74.4353 4.05516 6.36738
81 1 -73.6016 4.28696 5.95368
82 1 -73.4404 5.10351 5.45855
83 1 -73.9823 5.42519 4.77334
84 1 -73.2029 5.45915 4.21426
85 1 -73.2521 4.52023 4.13382
86 1 -73.7711 3.76691 4.13522
87 1 -73.7747 2.90505 4.53711
88 1 -74.4017 2.07262 4.62831
89 1 -74.6182 1.39649 5.23718
90 1 -74.9915 0.780676 4.65677
91 1 -75.8573 0.813753 4.16256
92 1 -75.3298 0.923591 3.4274
93 1 -75.8981 1.70346 3.59243
94 1 -75.9484 2.28064 2.85071
95 1 -74.9501 2.47343 2.79675
96 1 -74.4684 2.89289 2.17633
97 1 -73.6313 3.00127 1.67944
98 1 -74.16 3.18572 0.905261
99 1 -74.8357 2.70432 0.439769
100 1 -75.321 2.50219 -0.292683
101 1 -75.2964 1.56966 -0.392978
102 1 -74.7446 0.795958 -0.477651
103 1 -74.9239 0.525014 0.419617
104 1 -75.1848 -0.209361 -0.157758
105 1 -74.9517 -0.0327528 -1.04267
106 1 -74.3368 -0.537268 -1.49618
107 1 -73.5481 -0.496615 -2.03593
108 1 -73.2838 -0.167293 -2.90353
109 1 -73.5295 -0.142528 -3.81996
110 1 -73.4108 -0.478547 -4.74183
111 1 -73.3147 -1.26128 -5.29227
112 1 -73.5414 -1.31881 -6.19492
113 1 -73.2001 -1.31366 -7.04916
114 1 -72.3017 -1.49521 -6.87671
115 1 -72.5994 -0.808628 -6.36317
116 1 -72.6521 0.141628 -6.4052
117 1 -71.7617 0.487338 -6.71454
118 1 -71.5617 0.182785 -5.80599
119 1 -71.2025 1.01234 -5.49895
120 1 -71.4302 0.660488 -4.69442
121 1 -71.2449 1.24151 -3.95475
122 1 -70.4835 1.69683 -4.30121
123 1 -70.6595 2.0296 -5.1649
124 1 -69.963 1.47835 -5.49705
125 1 -69.4898 1.15219 -6.26677
126 1 -68.6981 1.59624 -6.26118
127 1 -68.3088 2.40975 -6.20723
128 1 -68.0138 2.46696 -7.08846
129 1 -67.304 3.12989 -7.14826
130 1 -67.8152 3.72369 -7.64786
131 1 -67.098 4.23343 -7.97791
132 1 -67.2395 4.64441 -7.14344
133 1 -66.5684 5.16926 -7.47564
134 1 -66.3019 5.93624 -8.0372
135 1 -65.7546 6.39642 -8.65121
136 1 -65.2058 6.4665 -7.93644
137 1 -64.9908 7.1338 -7.26518
138 1 -64.2075 7.26539 -7.76527
139 1 -63.9181 7.90997 -7.1591
140 1 -63.1585 7.59859 -6.74858
141 1 -62.3695 7.9922 -6.37603
142 1 -61.8731 8.78637 -6.47388
143 1 -60.9472 8.60593 -6.41442
144 1 -60.1226 8.96058 -6.7606
145 1 -59.3676 8.40528 -6.6717
146 1 -58.8271 8.56519 -5.84882
147 1 -58.1606 8.17621 -5.36482
148 1 -58.0987 7.41044 -4.8214
149 1 -57.8784 7.25433 -5.7357
150 1 -58.221 7.76617 -6.47599
151 1 -57.4851 8.09271 -6.9314
152 1 -56.9028 8.77904 -7.218
153 1 -56.0401 8.53321 -7.37725
154 1 -55.4058 9.03283 -6.89444
155 1 -54.7999 9.06316 -6.14794
156 1 -54.7827 8.15624 -6.4234
157 1 -54.537 7.94536 -7.32288
158 1 -53.6836 7.76026 -6.94282
159 1 -53.2674 8.50496 -7.30027
160 1 -53.6769 9.23776 -7.6817
161 1 -54.0489 9.62899 -8.4454
162 1 -53.9351 10.346 -7.79976
163 1 -53.2184 10.9077 -7.90914
164 1 -52.3209 10.9097 -8.10175
165 1 -51.8853 11.6066 -7.75162
166 1 -51.308 12.2891 -7.41471
167 1 -50.9947 13.1686 -7.32844
168 1 -50.5347 13.8077 -6.82448
169 1 -49.648 14.066 -7.02885
170 1 -49.6322 14.0246 -6.06812
171 1 -49.3471 13.7398 -5.23336
172 1 -49.8884 14.3845 -4.75988
173 1 -49.1545 14.9249 -4.58147
174 1 -48.6132 15.5905 -4.22336
175 1 -48.7443 15.8388 -5.1039
176 1 -48.2093 15.9134 -5.9271
177 1 -47.6365 16.1588 -6.6678
178 1 -47.9109 15.7196 -7.41289
179 1 -48.765 15.7444 -7.76248
180 1 -48.2861 15.2104 -8.38749
181 1 -48.5372 14.533 -7.74102
182 1 -47.7881 14.0247 -7.66546
183 1 -46.9049 13.7478 -7.75335
184 1 -46.1081 13.5842 -7.21116
185 1 -45.2936 13.242 -7.09175
186 1 -45.2351 12.4732 -6.57923
187 1 -44.6486 11.8955 -6.11148
188 1 -44.4652 11.9083 -5.15844
189 1 -43.8678 11.351 -4.65964
190 1 -43.4296 11.4475 -5.54862
191 1 -42.8884 10.669 -5.58446
192 1 -41.9012 10.6502 -5.78817
193 1 -40.9824 10.5795 -5.88604
194 1 -40.2547 11.0086 -6.21657
195 1 -39.4539 11.3109 -6.51543
196 1 -38.6284 10.8522 -6.65057
197 1 -39.1316 10.0464 -6.72445
198 1 -38.5596 9.82155 -6.0728
199 1 -37.6997 9.97748 -6.04396
200 1 -36.9431 10.5089 -6.33198
201 1 -36.6295 10.2675 -5.49048
202 1 -35.8012 10.1456 -4.9893
203 1 -35.3069 10.4244 -5.77702
204 1 -35.4697 10.1098 -6.63313
205 1 -34.6202 9.82817 -6.3275
206 1 -33.9289 10.0376 -6.95569
207 1 -33.1478 9.80545 -6.56092
208 1 -32.312 9.50741 -7.04891
209 1 -32.167 8.98648 -7.86554
210 1 -31.2972 8.79719 -7.49145
211 1 -30.7479 8.48314 -6.78164
212 1 -30.1655 8.54441 -6.00517
213 1 -29.2503 8.16231 -6.15549
214 1 -28.7499 7.57605 -5.69462
215 1 -27.7887 7.75662 -5.71127
216 1 -26.9262 7.80914 -5.91154
217 1 -26.6316 8.52184 -5.41358
218 1 -26.1035 7.75546 -5.17682
219 1 -25.3084 8.172 -4.86503
220 1 -24.4024 8.38403 -4.61303
221 1 -23.7145 8.36265 -4.03874
222 1 -23.2805 7.6901 -3.51045
223 1 -22.5123 7.81641 -3.947
224 1 -21.8745 8.38437 -3.60745
225 1 -21.6583 8.36187 -4.5393
226 1 -21.0248 8.10731 -5.1592
227 1 -20.2774 8.63971 -5.48278
228 1 -19.3399 8.84397 -5.36776
229 1 -19.2088 9.54226 -5.97419
230 1 -18.6304 8.96469 -6.47864
231 1 -18.5247 8.04632 -6.79843
232 1 -17.9068 7.36584 -6.82003
233 1 -17.2669 7.01274 -6.25338
234 1 -16.7145 7.61021 -6.74331
235 1 -15.9444 7.76551 -6.26171
236 1 -15.1076 7.76433 -6.633
237 1 -14.4079 7.9849 -6.08239
238 1 -14.212 7.92211 -5.18657
239 1 -14.0543 8.78953 -4.7794
240 1 -13.7212 9.5169 -5.29114
241 1 -14.0017 10.2921 -4.81251
242 1 -13.508 11.0433 -4.47916
243 1 -12.612 11.2504 -4.58007
244 1 -13.2405 11.8326 -5.05851
245 1 -13.1286 11.9783 -5.98773
246 1 -12.3103 12.0917 -6.4045
247 1 -12.8041 12.9086 -6.40953
248 1 -13.1327 13.7528 -6.29804
249 1 -12.5237 14.3809 -6.1255
250 1 -12.1576 14.8765 -5.39709
251 1 -12.9872 14.9711 -4.91793
252 1 -13.0896 15.7982 -4.42137
253 1 -12.3773 15.7638 -3.81657
254 1 -12.2144 15.9361 -2.91394
255 1 -11.9571 16.6995 -3.41389
256 1 -11.1626 16.414 -3.75215
257 1 -11.0412 16.7008 -2.86891
258 1 -10.6906 17.5234 -2.59416
259 1 -10.4006 18.3936 -2.77674
260 1 -10.3949 19.0703 -3.50352
261 1 -10.2524 19.6349 -4.23858
262 1 -9.33655 19.776 -4.29142
263 1 -9.05393 18.8933 -3.9235
264 1 -9.43212 18.8033 -3.08455
265 1 -9.80396 19.2061 -2.30364
266 1 -9.40053 18.5028 -1.81046
267 1 -8.92361 18.0931 -1.10295
268 1 -7.98731 18.0912 -1.20278
269 1 -8.13501 17.1779 -1.18687
270 1 -7.35528 16.9513 -1.67258
271 1 -6.44863 17.1072 -1.57658
272 1 -6.03759 16.2504 -1.30136
273 1 -5.65434 15.3555 -1.1789
274 1 -4.89654 15.2496 -1.71471
275 1 -4.39517 16.0325 -1.68909
276 1 -4.95458 15.9942 -0.935017
277 1 -4.30452 15.7565 -0.333803
278 1 -3.55762 16.1156 0.0209457
279 1 -2.86949 15.4432 0.0725159
280 1 -2.31082 14.663 0.0741988
281 1 -1.39759 14.6487 0.094254
282 1 -0.595467 15.0026 0.449124
283 1 -0.034807 15.5771 -0.0619765
284 1 0.853123 15.479 -0.0493966
285 1 1.62552 14.9855 0.206255
286 1 2.26817 15.0413 -0.479705
287 1 3.21176 15.128 -0.445109
288 1 3.53478 14.3542 -0.914812
289 1 4.22886 14.5496 -0.302759
290 1 5.02196 14.4165 0.0524337
291 1 5.50788 14.6217 0.871197
292 1 5.8715 15.1265 1.57614
293 1 6.45938 15.7182 1.24929
294 1 7.30115 15.3196 1.21853
295 1 7.74762 14.6861 1.68791
296 1 8.54794 14.218 1.41603
297 1 9.13771 14.9307 1.80277
298 1 9.76138 15.2527 1.11408
299 1 10.6267 14.9188 1.2748
300 1 10.7855 13.9974 1.4998
301 1 11.5227 13.4341 1.58115
302 1 12.2558 12.8587 1.72601
303 1 12.146 12.0162 2.07945
304 1 12.9245 11.8716 1.55992
305 1 13.4579 11.306 2.13922
306 1 13.7577 10.4692 2.06005
307 1 14.3598 10.1009 1.38013
308 1 14.5155 10.3299 0.448364
309 1 15.3083 10.9133 0.598678
310 1 15.8877 11.2283 -0.0743947
311 1 15.9175 12.0297 0.394927
312 1 16.0185 11.7162 1.27444
313 1 16.4349 11.8871 2.1123
314 1 16.7411 11.0229 2.33179
315 1 17.3247 10.6846 1.6768
316 1 17.9213 10.1754 2.09927
317 1 17.2191 9.55801 1.9505
318 1 17.1899 9.43457 2.88838
319 1 17.7329 9.00859 3.53144
320 1 18.0526 8.36421 2.97417
321 1 17.6543 7.54054 2.94878
322 1 17.9289 6.72783 2.54063
323 1 18.5928 6.27016 2.00222
324 1 19.2171 5.57796 1.79504
325 1 19.6873 4.87893 2.30595
326 1 19.8946 4.33387 3.02113
327 1 20.7691 3.9865 3.34083
328 1 21.3754 4.18516 2.61138
329 1 21.558 4.34744 1.70898
330 1 22.384 4.72394 2.05029
331 1 22.6444 5.53988 2.52167
332 1 23.1411 6.12804 3.07506
333 1 23.4374 6.45485 2.27458
334 1 24.4107 6.41865 2.13088
335 1 24.7276 6.7734 1.31015
336 1 25.3169 7.0724 0.630041
337 1 25.887 6.46233 1.11233
338 1 26.1119 5.5355 1.29769
339 1 26.1342 5.08547 2.12738
340 1 27.1086 4.98248 2.05965
341 1 28.0279 4.84549 2.00195
342 1 28.2779 4.32537 1.28851
343 1 28.8591 3.83091 0.760714
344 1 29.2581 3.05394 0.539723
345 1 30.1614 3.40459 0.570322
346 1 29.9345 3.75717 -0.259741
347 1 30.818 3.45283 -0.292157
348 1 31.5482 2.82521 -0.18307
349 1 32.0914 2.28234 0.376841
350 1 31.5045 1.57967 0.725123
351 1 32.1772 1.20371 0.19415
352 1 32.7048 0.43575 -0.128719
353 1 33.3493 0.142129 -0.719566
354 1 33.8435 0.812671 -0.283595
355 1 33.8628 0.704221 0.641618
356 1 34.8233 0.593542 0.614579
357 1 34.7419 0.688662 1.57197
358 1 35.5404 1.05304 1.93274
359 1 36.0817 1.61883 2.46297
360 1 36.6406 1.51255 3.25185
361 1 37.0431 2.09007 3.84594
362 1 37.7849 2.61581 3.69425
363 1 38.6752 2.97543 3.71758
364 1 39.2753 3.68069 3.52002
365 1 40.135 3.80571 3.82668
366 1 41.0851 4.03057 3.92939
367 1 40.7922 4.22856 4.77172
368 1 41.3986 3.73614 5.25532
369 1 41.2164 2.85184 5.25454
370 1 41.628 2.65982 6.04972
371 1 41.6979 1.80087 5.69189
372 1 42.4264 1.27894 5.36849
373 1 41.7352 0.720251 5.63502
374 1 42.1396 0.257616 6.38676
375 1 43.0505 0.414673 6.56236
376 1 44.0345 0.484204 6.45584
377 1 44.8958 0.304565 6.69588
378 1 45.4558 -0.404916 6.75444
379 1 44.9893 -1.08013 6.28286
380 1 44.4648 -1.42343 5.55794
381 1 45.2469 -1.28406 5.11162
382 1 45.7315 -0.564797 4.74581
383 1 46.6029 -0.690392 5.26379
384 1 47.1573 -0.325432 4.59453
385 1 47.9123 -0.436357 5.0916
386 1 48.4314 -1.03569 4.66406
387 1 49.0635 -0.690118 5.30016
388 1 49.7676 -0.763165 4.61463
389 1 49.1591 -0.40846 3.9739
390 1 49.8522 -0.0617543 3.39397
391 1 50.6533 -0.188483 2.94776
392 1 51.2619 0.362514 2.48667
393 1 51.5813 0.828612 3.22993
394 1 51.7966 1.50477 2.6677
395 1 52.601 0.99773 2.73088
396 1 52.2215 0.138574 2.64475
397 1 52.5837 0.263984 1.81361
398 1 53.3155 0.0797344 1.27308
399 1 53.6929 0.356367 0.446723
400 1 53.7276 1.27543 0.38157
401 1 54.3507 1.44149 1.0396
402 1 55.2567 1.15829 1.19942
403 1 55.5619 1.0977 0.347286
404 1 56.0799 1.62315 -0.273921
405 1 56.8887 1.22486 -0.08942
406 1 57.1807 1.97015 0.417842
407 1 57.6391 1.8862 1.19835
408 1 57.5629 1.02853 0.993327
409 1 57.4115 0.15897 0.819056
410 1 58.0044 -0.52383 1.0225
411 1 58.7926 -0.555241 1.49326
412 1 59.6927 -0.252732 1.31133
413 1 59.839 0.676956 1.37634
414 1 60.7235 0.853307 1.04008
415 1 61.4243 0.837938 1.68857
416 1 62.2728 0.641509 2.04366
417 1 63.0096 0.651521 2.63306
418 1 63.8171 0.37308 2.23511
419 1 63.9914 -0.293969 2.8574
420 1 64.7312 -0.671293 3.30083
421 1 64.6467 -1.58494 3.38221
422 1 64.7956 -2.24495 2.69823
423 1 65.1564 -3.07621 2.20608
424 1 64.7857 -3.60143 2.87466
425 1 64.9229 -3.7944 3.77177
426 1 65.5197 -3.14358 4.18314
427 1 65.8002 -3.17968 5.0813
428 1 65.6329 -2.43458 5.62287
429 1 65.5911 -1.5059 5.60118
430 1 66.5657 -1.57989 5.28964
431 1 67.0906 -0.964355 4.82659
432 1 66.7553 -1.19055 3.97011
433 1 66.6665 -0.33318 3.68881
434 1 67.5354 -0.699342 3.69945
435 1 68.164 -1.29808 3.48494
436 1 68.4916 -0.9341 2.67495
437 1 69.3827 -1.29318 2.41744
438 1 69.8156 -0.588051 2.79305
439 1 69.8236 0.254273 2.40072
440 1 70.3644 0.929548 2.08183
441 1 70.6366 1.79483 1.74855
442 1 71.5379 1.70894 1.45886
443 1 71.8851 1.33133 2.27697