ITEM: TIMESTEP
1540000
ITEM: NUMBER OF ATOMS
512
ITEM: BOX BOUNDS mm mm mm
-2.5600000000000000e+02 2.5600000000000000e+02
-2.5600000000000000e+02 2.5600000000000000e+02
-2.5600000000000000e+02 2.5600000000000000e+02
ITEM: ATOMS id type x y z
1 1 -62.5083 12.7434 6.66307
2 1 -62.077 12.5742 7.42025
3 1 -61.4377 12.0189 7.83685
4 1 -61.5483 11.1648 8.10481
5 1 -62.2789 10.6158 8.24745
6 1 -63.176 10.5386 7.96617
7 1 -63.0599 10.7345 7.07054
8 1 -64.0031 10.6856 7.05731
9 1 -64.429 9.86202 7.19528
10 1 -63.9367 9.4771 6.43902
11 1 -64.0758 10.2122 5.87648
12 1 -64.5636 9.88706 5.13744
13 1 -65.2792 10.3401 4.76913
14 1 -65.5716 10.6219 3.8631
15 1 -65.2185 10.3631 3.07663
16 1 -65.229 9.41976 3.24371
17 1 -65.7068 8.91737 3.86756
18 1 -66.3863 8.96324 3.20893
19 1 -66.9629 8.33608 3.57811
20 1 -66.3293 8.00285 4.13701
21 1 -65.5364 7.6889 3.62565
22 1 -64.8921 7.5145 2.98711
23 1 -64.2448 7.04217 2.4625
24 1 -64.1428 7.18866 1.53307
25 1 -63.7161 6.32807 1.56373
26 1 -63.1933 6.8212 1.00191
27 1 -62.4826 6.23729 0.770848
28 1 -61.6871 5.79799 1.01495
29 1 -61.6011 4.87353 1.21711
30 1 -61.5246 3.93848 1.43399
31 1 -60.9233 3.98888 2.13161
32 1 -61.2503 3.47137 2.96177
33 1 -60.3645 3.59956 3.20702
34 1 -60.4556 3.41913 4.13246
35 1 -61.1679 2.84538 4.09299
36 1 -60.967 2.04384 3.62404
37 1 -60.3587 1.9059 2.84354
38 1 -60.2917 2.323 1.99724
39 1 -60.8368 2.37564 1.1975
40 1 -61.7266 2.04511 1.35528
41 1 -62.148 2.61015 2.10152
42 1 -62.7816 2.02458 1.78328
43 1 -63.5573 1.95618 1.19922
44 1 -63.4056 2.93413 1.1794
45 1 -63.6502 3.8453 1.02821
46 1 -64.5395 3.64265 0.785404
47 1 -64.5901 4.50224 0.400044
48 1 -65.4095 4.26345 -0.0576393
49 1 -65.7826 3.46869 0.160683
50 1 -65.0274 2.91678 -0.0409617
51 1 -65.3449 2.52294 0.773102
52 1 -65.5914 2.96708 1.57302
53 1 -66.2946 2.99156 2.23276
54 1 -66.8685 3.68029 2.01269
55 1 -67.55 3.39794 2.55106
56 1 -66.7986 3.63085 3.07588
57 1 -66.3261 3.34387 3.84237
58 1 -65.6125 2.73025 3.89401
59 1 -64.7986 2.44228 3.60193
60 1 -64.3918 1.54854 3.47858
61 1 -63.6194 1.74629 3.97747
62 1 -63.089 2.42586 4.34842
63 1 -63.1582 2.34971 5.30086
64 1 -62.6951 1.94011 5.95554
65 1 -62.7903 1.64618 6.80897
66 1 -61.9479 1.28265 6.67966
67 1 -61.8953 1.03115 7.56659
68 1 -62.5872 1.19382 8.15531
69 1 -62.9466 0.649231 8.88737
70 1 -62.1071 0.252579 8.96927
71 1 -61.3948 -0.120055 9.5491
72 1 -60.7321 0.495113 9.25001
73 1 -60.1327 1.16832 8.97782
74 1 -59.4447 1.54452 8.39099
75 1 -59.8137 2.34517 8.14444
76 1 -59.4536 3.21194 7.93122
77 1 -58.9966 3.97289 8.27776
78 1 -58.4689 4.11982 9.06738
79 1 -58.3663 4.31496 9.96845
80 1 -58.2758 4.87519 10.7439
81 1 -58.0476 4.4485 11.603
82 1 -57.9488 3.74634 11.0171
83 1 -57.3523 3.28745 10.3954
84 1 -56.9749 2.74655 9.76159
85 1 -56.9134 2.00125 9.10837
86 1 -56.8357 1.04595 8.95476
87 1 -56.5784 0.477323 8.23484
88 1 -55.894 0.475423 8.9465
89 1 -55.4915 -0.0381537 8.27963
90 1 -54.9599 -0.710508 7.95664
91 1 -54.595 -1.23646 7.3062
92 1 -54.6125 -0.429632 6.78641
93 1 -54.4408 0.346031 6.35718
94 1 -53.6196 0.826166 6.27148
95 1 -53.6928 0.623498 7.16207
96 1 -52.7554 0.729632 7.42383
97 1 -52.4306 1.58142 7.15973
98 1 -51.4439 1.73917 7.29284
99 1 -50.9593 1.69788 6.45642
100 1 -51.4218 2.49145 6.22749
101 1 -51.1786 2.14175 5.41464
102 1 -51.1721 2.98517 4.97548
103 1 -51.0125 3.59008 4.2538
104 1 -51.2435 4.4743 4.47994
105 1 -51.2567 5.39899 4.80425
106 1 -51.2872 4.72788 5.45545
107 1 -51.0958 3.84046 5.46971
108 1 -50.8829 3.79075 6.40792
109 1 -49.9381 3.94134 6.5225
110 1 -49.9818 3.22895 5.88936
111 1 -49.3205 3.26103 5.25965
112 1 -48.6099 3.42638 4.65989
113 1 -48.2261 3.77097 3.80846
114 1 -47.2412 3.80049 3.865
115 1 -46.6043 3.71198 4.53058
116 1 -45.7278 3.63081 4.30461
117 1 -45.9778 4.12936 3.59717
118 1 -45.4911 4.97002 3.1314
119 1 -45.667 5.44272 3.9678
120 1 -46.096 6.02157 4.48958
121 1 -46.6861 5.55227 5.10019
122 1 -45.8271 5.65971 5.53692
123 1 -44.9925 5.43391 5.03192
124 1 -44.435 4.958 5.59568
125 1 -44.8407 4.44007 4.90426
126 1 -44.6334 3.7998 5.52338
127 1 -44.5332 3.15453 4.85406
128 1 -44.4625 3.18406 3.95047
129 1 -43.9768 2.7931 3.23443
130 1 -43.4133 2.46857 2.58156
131 1 -42.5088 2.49351 2.24237
132 1 -42.1575 3.07278 2.85465
133 1 -41.3202 3.48601 2.79411
134 1 -40.5928 3.05482 3.14775
135 1 -40.1301 3.58378 3.7917
136 1 -39.5296 4.2914 4.00829
137 1 -40.0995 4.99901 4.38549
138 1 -40.0054 5.07511 5.31149
139 1 -39.5881 5.08149 6.14956
140 1 -39.1776 4.41072 6.80043
141 1 -38.761 5.08393 7.28143
142 1 -38.053 5.58502 6.87939
143 1 -37.2594 5.16133 6.99263
144 1 -37.0803 4.38926 7.51422
145 1 -36.1991 4.16652 7.26816
146 1 -36.1277 4.78343 7.93851
147 1 -35.3914 5.37328 8.14383
148 1 -35.117 4.4792 8.16048
149 1 -35.2731 4.23634 9.05416
150 1 -35.8469 5.03671 9.17833
151 1 -35.2411 5.17358 9.927
152 1 -34.4341 5.28896 10.3031
153 1 -34.7885 4.57516 10.7639
154 1 -33.9304 4.22499 10.9537
155 1 -33.1688 4.56529 10.5517
156 1 -32.7895 3.89187 10.0147
157 1 -32.8985 3.99935 9.03514
158 1 -33.4181 4.10881 8.24205
159 1 -34.2163 4.12273 7.76037
160 1 -33.641 3.43124 7.48064
161 1 -32.8039 3.13405 7.09677
162 1 -32.7828 3.60139 6.21892
163 1 -32.0258 4.11692 6.53652
164 1 -31.4757 3.74663 7.23896
165 1 -31.5806 3.27579 8.05415
166 1 -31.8975 2.39316 8.31986
167 1 -31.4262 1.66485 8.10736
168 1 -30.5277 1.7206 8.3879
169 1 -29.7028 2.25649 8.03132
170 1 -29.7506 2.98525 8.52938
171 1 -29.2461 2.93717 9.30496
172 1 -29.5766 3.83121 9.26212
173 1 -28.7193 3.72288 9.67384
174 1 -28.4452 3.38301 10.5982
175 1 -28.2014 2.54102 10.8712
176 1 -28.3571 1.67002 10.4478
177 1 -27.9281 1.30996 9.68349
178 1 -27.3088 0.708656 9.29537
179 1 -26.4071 0.509003 9.49953
180 1 -25.8342 0.427444 10.2454
181 1 -25.4635 1.29045 10.0779
182 1 -26.3155 1.4574 10.2036
183 1 -26.9243 2.07269 9.93188
184 1 -26.1382 2.62587 10.1401
185 1 -25.4027 2.83519 9.55994
186 1 -24.6846 2.43979 9.13099
187 1 -24.5987 2.44915 10.0807
188 1 -24.4356 1.58014 10.3382
189 1 -23.7877 1.09768 9.87378
190 1 -22.9183 1.4551 9.96442
191 1 -22.2267 1.88843 9.58553
192 1 -21.4403 2.4057 9.34464
193 1 -20.5854 2.74456 9.30537
194 1 -19.7247 2.78295 8.93634
195 1 -19.0516 2.27112 8.54983
196 1 -18.512 1.77971 7.90645
197 1 -18.2097 2.19962 7.12455
198 1 -17.4587 2.64688 6.81751
199 1 -16.6354 3.07764 6.81988
200 1 -15.9041 2.51552 7.05513
201 1 -15.2533 1.83843 7.16638
202 1 -15.0087 2.07962 8.06242
203 1 -14.3538 1.99483 8.73693
204 1 -13.8467 2.55853 9.32445
205 1 -13.1227 3.15544 9.35036
206 1 -12.7668 3.13559 8.45169
207 1 -13.4964 3.42107 7.97618
208 1 -13.0858 4.04265 7.41534
209 1 -13.4522 4.80494 6.95235
210 1 -13.2875 5.75939 6.8997
211 1 -12.6897 6.43263 6.75308
212 1 -13.0026 7.24058 7.04745
213 1 -13.6343 7.74787 7.58344
214 1 -13.7911 7.02579 8.22417
215 1 -14.2169 6.80028 9.05226
216 1 -13.7828 7.19256 9.83852
217 1 -13.1431 6.85822 10.4965
218 1 -12.4543 7.54247 10.5942
219 1 -12.5296 7.84184 9.62353
220 1 -12.6192 8.60835 9.09532
221 1 -11.8279 8.87112 9.51261
222 1 -10.8594 8.76094 9.51319
223 1 -9.93163 8.72976 9.32414
224 1 -9.89436 9.51006 9.83207
225 1 -10.1996 9.51078 10.6627
226 1 -10.426 10.3321 11.0545
227 1 -10.4905 11.195 11.4051
228 1 -10.9568 11.4441 10.6488
229 1 -10.4158 11.958 10.0529
230 1 -9.71412 12.5455 9.99619
231 1 -9.01196 12.4953 10.5949
232 1 -8.14409 12.6155 10.8876
233 1 -7.24194 12.8195 10.9369
234 1 -6.66432 13.5056 10.7699
235 1 -6.12436 13.912 10.0673
236 1 -5.87497 12.9886 10.1124
237 1 -6.67919 12.5823 9.80002
238 1 -7.30919 12.9187 9.18436
239 1 -7.47551 12.0474 8.82305
240 1 -7.87976 12.1555 7.98243
241 1 -8.68566 11.8756 7.51024
242 1 -9.08777 11.0179 7.5793
243 1 -8.34629 10.5474 7.22841
244 1 -8.09097 10.5303 6.27273
245 1 -8.79367 11.0629 5.89236
246 1 -8.68678 11.6248 5.03614
247 1 -7.95415 11.4339 4.47328
248 1 -7.05793 11.467 4.29255
249 1 -6.33989 12.0641 4.3391
250 1 -5.77287 12.3027 4.98584
251 1 -6.02287 13.005 5.59327
252 1 -6.26956 13.4491 4.81958
253 1 -5.29673 13.2486 4.71388
254 1 -4.81054 13.9786 4.31546
255 1 -3.98218 14.506 4.35453
256 1 -3.7724 15.3765 4.72643
257 1 -4.73467 15.2609 4.67159
258 1 -4.42713 14.824 5.47056
259 1 -4.00198 15.2232 6.17322
260 1 -4.24608 14.6897 6.91217
261 1 -3.71691 14.0075 7.35174
262 1 -2.8309 13.9577 7.18678
263 1 -3.01785 13.6173 6.29571
264 1 -2.97615 14.4896 6.0392
265 1 -2.53222 15.3417 6.15287
266 1 -2.90503 16.1386 6.43578
267 1 -2.45512 16.978 6.58019
268 1 -1.54791 16.8971 6.35355
269 1 -0.862958 17.4847 6.01851
270 1 -0.138964 17.5469 5.38382
271 1 0.336188 18.3127 5.67498
272 1 0.600866 17.5042 6.17015
273 1 1.32425 17.3011 5.58762
274 1 1.90534 16.9467 6.22725
275 1 2.82585 17.3393 6.29107
276 1 2.44579 18.1033 5.8453
277 1 2.35335 17.5659 5.08666
278 1 1.71245 17.5856 4.39964
279 1 1.67702 17.1202 3.53581
280 1 1.06577 17.7382 3.10347
281 1 1.12785 18.0389 2.22153
282 1 0.318392 17.521 2.0513
283 1 0.495713 16.8846 2.73548
284 1 1.18998 16.888 2.08745
285 1 1.10173 16.3625 1.30294
286 1 0.208006 16.3574 1.58071
287 1 0.0375565 15.4002 1.54879
288 1 -0.924236 15.418 1.5178
289 1 -1.06688 16.3304 1.67502
290 1 -1.2118 17.0779 1.0775
291 1 -1.8212 17.7726 1.29545
292 1 -1.89544 18.4198 1.99641
293 1 -1.06208 17.9885 2.24338
294 1 -0.573891 18.4821 1.60162
295 1 0.024576 18.5911 0.827053
296 1 -0.884466 18.7428 0.600916
297 1 -0.803829 19.7163 0.334606
298 1 -1.31164 20.5236 0.366366
299 1 -1.01591 20.8798 -0.445608
300 1 -1.84544 20.7381 -0.84391
301 1 -1.62083 21.4786 -1.38387
302 1 -1.29695 22.1017 -0.763757
303 1 -0.620451 21.7759 -1.27904
304 1 -0.219556 22.5115 -0.757491
305 1 0.281137 21.7586 -0.74084
306 1 0.84232 20.8922 -0.907305
307 1 1.30063 21.2776 -0.144913
308 1 1.77671 20.5597 0.277657
309 1 2.34114 20.2566 -0.410974
310 1 2.90909 21.0183 -0.421483
311 1 3.81262 20.978 -0.132394
312 1 4.52694 21.5278 -0.0323359
313 1 4.55506 21.4516 -1.047
314 1 5.17964 22.1792 -1.17106
315 1 5.5494 21.57 -0.568215
316 1 5.584 20.7545 -0.143163
317 1 5.55933 20.4185 0.770112
318 1 5.88204 20.4392 1.65669
319 1 6.21646 20.7277 2.48522
320 1 6.73559 20.8918 3.34568
321 1 6.91768 20.0113 3.37795
322 1 6.95017 19.0801 3.30362
323 1 7.39796 18.9071 4.1198
324 1 7.61831 18.2129 3.46868
325 1 8.56752 18.3208 3.35387
326 1 8.40456 19.1059 2.74182
327 1 7.56616 19.513 2.60623
328 1 7.49916 18.5926 2.41973
329 1 7.10349 17.7651 2.24068
330 1 7.0493 16.8636 2.44716
331 1 6.8505 15.9231 2.65591
332 1 5.99773 15.9933 2.9585
333 1 5.38946 15.486 2.51509
334 1 5.28588 16.3782 2.17755
335 1 4.93902 17.1591 1.83925
336 1 5.11861 16.9749 0.946313
337 1 5.72517 16.2266 0.780415
338 1 5.58954 15.843 -0.0917112
339 1 5.67199 15.999 -1.02827
340 1 6.62086 16.048 -1.2852
341 1 7.02963 16.8372 -1.62895
342 1 7.59019 17.5774 -1.90663
343 1 8.49903 17.6501 -2.02738
344 1 8.96362 17.9168 -1.19378
345 1 9.35949 18.6674 -0.798358
346 1 8.80232 19.0027 -0.131668
347 1 8.72156 19.5718 0.662812
348 1 9.46991 19.4472 1.27315
349 1 9.87273 20.3333 1.21898
350 1 10.7104 20.0348 1.44134
351 1 11.5929 20.2294 1.24205
352 1 12.5293 20.3794 1.38897
353 1 13.2388 20.5059 0.828441
354 1 13.7082 20.5144 1.64635
355 1 14.0026 19.7887 2.15427
356 1 13.8702 18.968 2.60983
357 1 13.6671 19.0412 3.57659
358 1 13.5442 19.1961 4.54287
359 1 14.0893 18.4192 4.65458
360 1 14.7026 17.9803 5.2713
361 1 15.08 18.1403 4.43118
362 1 14.7445 17.3492 4.129
363 1 15.1564 17.15 3.28371
364 1 15.7136 16.5831 2.80649
365 1 15.3352 16.8105 1.957
366 1 15.2885 17.6643 1.63708
367 1 14.7761 18.4433 1.65942
368 1 15.598 18.9156 1.70435
369 1 15.997 19.501 1.0898
370 1 16.8503 19.4459 1.40956
371 1 17.4248 18.9826 0.823136
372 1 18.0513 19.3781 0.217266
373 1 18.3264 19.1259 -0.661359
374 1 18.9738 19.1151 -1.36435
375 1 19.5017 19.066 -0.61176
376 1 19.7369 18.1376 -0.71907
377 1 19.4653 17.5122 -0.0706773
378 1 19.9384 17.5271 0.738275
379 1 20.6201 17.6086 1.41546
380 1 21.4199 17.5701 2.00011
381 1 21.7477 16.7194 2.27242
382 1 21.1909 15.9959 2.11761
383 1 20.9227 15.2479 1.7786
384 1 21.5758 15.2847 1.04201
385 1 22.0743 14.9595 0.332486
386 1 22.2703 14.5532 -0.523499
387 1 23.0585 15.0562 -0.360375
388 1 23.7795 15.2564 0.104243
389 1 24.1922 15.9892 -0.379887
390 1 24.5055 15.2272 -0.796581
391 1 24.7742 14.6998 -1.56689
392 1 24.4508 13.9259 -1.14976
393 1 24.6807 13.0159 -1.29541
394 1 25.5583 13.3706 -1.59388
395 1 25.8899 12.6419 -1.00701
396 1 25.7221 13.2623 -0.299881
397 1 25.5142 14.2048 -0.333286
398 1 25.6107 14.3995 0.593914
399 1 26.4182 14.7879 0.196072
400 1 26.6172 14.9837 -0.674519
401 1 27.0774 14.9248 -1.46055
402 1 27.785 14.3812 -1.45267
403 1 28.385 14.5801 -0.769841
404 1 29.1117 14.3103 -0.316858
405 1 29.2911 13.4057 -0.489327
406 1 29.3838 12.4426 -0.560128
407 1 29.4929 11.9786 -1.34135
408 1 29.2115 11.1772 -0.904043
409 1 30.002 10.6958 -1.0426
410 1 29.7121 9.78976 -1.2008
411 1 29.1788 9.40732 -0.530292
412 1 28.3054 9.58246 -0.926868
413 1 27.5235 9.77894 -1.50172
414 1 27.0635 9.00572 -1.63772
415 1 26.2302 9.21264 -1.18185
416 1 25.7276 8.94445 -0.397274
417 1 26.1389 9.36849 0.41046
418 1 26.0289 9.46905 1.32673
419 1 25.2979 9.83134 0.880036
420 1 25.2363 10.7347 0.863109
421 1 25.8011 10.7935 0.12933
422 1 26.1965 11.2969 0.812245
423 1 26.6685 10.9679 1.53998
424 1 27.2838 11.3043 0.894952
425 1 27.5473 10.6508 0.213573
426 1 27.8484 10.0376 0.89482
427 1 27.6331 9.3552 1.46934
428 1 27.6815 9.63927 2.37339
429 1 28.3662 9.57329 3.04904
430 1 27.8652 10.0332 3.72147
431 1 27.907 10.9625 3.77309
432 1 27.6536 11.6 4.44294
433 1 27.2486 12.2659 3.88789
434 1 27.0578 12.666 3.10032
435 1 27.6564 13.3456 3.19299
436 1 27.4699 13.6918 2.33782
437 1 27.5322 14.567 1.99012
438 1 28.4858 14.4296 2.10671
439 1 29.0881 13.7376 2.63591
440 1 28.8904 12.9478 2.10093
441 1 29.4554 12.3372 1.70248
442 1 30.1398 12.3321 2.30732
443 1 30.8289 12.9288 2.65723
444 1 31.5648 13.0401 2.01311
445 1 31.1767 13.2379 1.23146
446 1 31.4771 14.0792 1.40127
447 1 30.5589 14.0893 1.18178
448 1 30.6054 14.8896 1.70555
449 1 30.6591 14.4371 2.51371
450 1 30.4659 14.3884 3.39255
451 1 30.7672 15.2528 3.41071
452 1 30.732 14.9256 4.22729
453 1 31.6392 14.839 4.00652
454 1 32.1449 14.7024 3.2402
455 1 32.3555 14.3655 2.41109
456 1 33.2687 14.367 2.79452
457 1 34.1048 14.7103 3.09957
458 1 34.1694 15.1064 3.91932
459 1 33.7811 15.6376 4.6134
460 1 33.7885 15.0348 5.27921
461 1 34.3314 14.312 5.37823
462 1 35.03 14.5166 4.77693
463 1 35.0797 14.4745 3.8532
464 1 35.4131 13.7604 3.29142
465 1 36.0276 13.5193 2.68581
466 1 36.2094 12.6985 2.35732
467 1 36.2932 12.9312 1.38059
468 1 37.0448 13.3324 1.73371
469 1 37.9297 13.4534 1.40448
470 1 38.3419 12.6608 1.85061
471 1 38.9811 12.4103 2.58206
472 1 39.6012 12.598 3.21102
473 1 40.2461 13.133 3.65353
474 1 40.8099 13.9154 3.79119
475 1 41.2326 14.32 3.02459
476 1 41.2918 13.5503 2.41245
477 1 41.3064 12.8789 1.77273
478 1 42.1572 12.6307 1.99733
479 1 43.0911 12.5482 2.2185
480 1 43.9836 12.2189 2.00742
481 1 44.824 11.9339 1.70047
482 1 45.0934 11.0441 2.00697
483 1 45.2476 10.7949 2.94618
484 1 45.3181 10.5197 3.78585
485 1 44.7368 9.78813 3.92467
486 1 44.9098 9.53386 4.8496
487 1 45.7181 9.80196 5.31569
488 1 46.0474 10.0271 6.16485
489 1 46.8307 10.481 5.8793
490 1 47.6818 10.3899 6.22585
491 1 47.7232 11.0363 6.92707
492 1 48.0276 11.9488 7.08219
493 1 48.1491 12.1245 7.99972
494 1 48.0746 12.9653 8.42229
495 1 47.1492 12.9926 8.24045
496 1 46.7897 13.2209 9.05889
497 1 46.2886 12.7081 9.56007
498 1 46.0915 13.0667 10.441
499 1 45.2677 13.4769 10.5374
500 1 44.5718 13.3744 11.2022
501 1 45.2723 13.5181 11.8273
502 1 45.6425 14.1237 12.4491
503 1 45.685 15.0063 12.7559
504 1 45.9506 15.8041 13.1702
505 1 46.7465 15.5016 12.7176
506 1 47.0782 16.2427 13.2692
507 1 46.4692 16.8584 13.7491
508 1 45.9702 16.8706 14.542
509 1 45.332 17.2311 15.0856
510 1 44.6742 16.9522 14.5054
511 1 43.9335 17.105 13.9367
512 1 43.3492 17.6301 13.3835
ITEM: TIMESTEP
1550000
ITEM: NUMBER OF ATOMS
512
ITEM: BOX BOUNDS mm mm mm
-2.5600000000000000e+02 2.5600000000000000e+02
-2.5600000000000000e+02 2.5600000000000000e+02
-2.5600000000000000e+02 2.5600000000000000e+02
ITEM: ATOMS id type x y z
1 1 -60.6827 12.4019 9.02074
2 1 -60.3595 13.1929 8.56457
3 1 -59.6842 13.45 9.1679
4 1 -59.2439 13.4911 10.0065
5 1 -59.745 12.7811 10.3203
6 1 -59.0683 12.3311 9.77458
7 1 -59.044 11.8507 8.92245
8 1 -59.6506 11.4029 8.36283
9 1 -59.387 10.4817 8.29718
10 1 -59.8835 9.74956 8.59645
11 1 -60.6994 9.44698 8.2045
12 1 -61.6115 9.18014 8.27782
13 1 -61.2895 8.37687 8.02379
14 1 -60.7705 7.87456 7.43454
15 1 -60.3906 8.69014 7.23042
16 1 -59.8492 8.65891 6.45656
17 1 -59.8322 9.56146 6.47012
18 1 -59.7459 9.15283 5.55102
19 1 -60.1731 8.97208 4.66351
20 1 -59.8555 8.78906 3.79248
21 1 -59.5965 7.94413 3.40028
22 1 -58.8899 7.73366 2.85513
23 1 -59.4061 6.99231 2.53613
24 1 -59.9727 6.37882 2.19657
25 1 -59.6702 6.07804 1.37429
26 1 -59.633 5.07306 1.42734
27 1 -60.2974 4.52627 1.82349
28 1 -59.8531 3.74995 1.7796
29 1 -59.8368 3.01548 1.1162
30 1 -60.4943 2.35912 1.25872
31 1 -60.7289 1.62873 1.7176
32 1 -60.7481 0.658385 1.55808
33 1 -60.1363 0.704066 0.78815
34 1 -59.4482 0.573669 0.160289
35 1 -59.0417 1.16403 0.757677
36 1 -59.3199 0.489256 1.35674
37 1 -59.438 -0.4505 1.65348
38 1 -59.4181 -0.951951 2.45154
39 1 -58.5579 -1.06429 2.63431
40 1 -57.7772 -0.825506 3.1718
41 1 -57.5213 -0.953346 4.08507
42 1 -58.2739 -1.03266 4.67805
43 1 -59.1336 -1.37564 4.9532
44 1 -59.439 -0.974745 5.70313
45 1 -58.9916 -1.20596 6.52575
46 1 -59.5572 -0.551472 6.94719
47 1 -60.4416 -0.216251 6.90802
48 1 -61.111 0.356751 6.62725
49 1 -61.801 0.548133 7.21069
50 1 -62.6178 0.295924 7.65204
51 1 -62.8108 -0.500812 7.14089
52 1 -63.4801 -0.190031 7.73898
53 1 -64.3264 -0.566166 7.68847
54 1 -65.172 -0.367543 8.0176
55 1 -65.7339 -0.659612 7.2703
56 1 -66.7048 -0.776803 7.25423
57 1 -66.5484 -1.40263 6.523
58 1 -65.8993 -1.84969 5.98204
59 1 -66.0373 -2.21234 5.09427
60 1 -65.4108 -1.58486 5.12348
61 1 -65.1802 -1.11731 4.38417
62 1 -65.1701 -0.314801 4.89124
63 1 -65.1886 -0.292248 5.81189
64 1 -64.4008 0.154636 6.06168
65 1 -63.5613 0.145447 6.54162
66 1 -63.791 0.999217 6.78826
67 1 -63.2127 1.69591 7.06921
68 1 -62.8789 2.55727 7.16154
69 1 -62.6477 2.82299 8.02679
70 1 -62.589 3.63307 8.51849
71 1 -62.3846 4.3982 9.13708
72 1 -61.526 4.7382 9.15848
73 1 -61.5692 3.76504 9.36574
74 1 -60.974 3.0529 9.4182
75 1 -60.1355 3.473 9.16948
76 1 -59.7513 3.3738 8.30313
77 1 -59.1785 4.06959 8.48387
78 1 -58.5444 3.41954 8.89341
79 1 -57.954 3.33136 8.13981
80 1 -57.8337 4.18773 7.8094
81 1 -58.3858 4.50545 7.08958
82 1 -58.2087 4.36547 6.20207
83 1 -59.0828 4.05501 6.20453
84 1 -59.227 3.13869 6.14001
85 1 -60.0387 2.64602 6.01348
86 1 -59.9944 2.11104 6.83673
87 1 -59.5529 2.09831 7.65669
88 1 -58.7642 1.60181 7.70402
89 1 -58.4523 2.38378 7.28156
90 1 -57.5708 2.49523 7.03393
91 1 -57.5144 2.54696 6.10101
92 1 -56.6745 2.67986 6.4786
93 1 -55.932 3.22334 6.86404
94 1 -56.0498 3.64562 6.01851
95 1 -56.1719 3.31197 5.14871
96 1 -55.9829 2.4042 5.19609
97 1 -55.0544 2.60282 4.99604
98 1 -55.0392 3.46569 5.37128
99 1 -54.6687 3.70304 6.17924
100 1 -54.5143 4.55281 6.38316
101 1 -54.5924 5.30439 6.93013
102 1 -54.7524 5.40871 7.82128
103 1 -54.0429 5.9023 8.06585
104 1 -53.8897 4.98342 8.25123
105 1 -53.0852 4.72587 7.89146
106 1 -52.1968 4.51512 7.77198
107 1 -51.8389 4.6518 8.64413
108 1 -51.2228 5.18207 9.13908
109 1 -51.4373 5.09339 10.0423
110 1 -50.5357 4.8776 9.91837
111 1 -49.866 5.07111 9.38238
112 1 -49.078 5.54572 9.12982
113 1 -49.1767 6.1836 8.37148
114 1 -48.9971 6.45369 7.48239
115 1 -48.531 7.08427 6.97252
116 1 -48.0696 7.64627 7.57968
117 1 -47.6233 8.49197 7.50227
118 1 -46.7591 8.9199 7.52137
119 1 -46.4875 9.79646 7.46067
120 1 -45.7868 9.30031 7.87233
121 1 -45.6301 9.1437 6.96153
122 1 -45.2153 9.12529 6.1207
123 1 -44.5092 9.54306 6.59002
124 1 -44.1335 9.10316 7.31981
125 1 -43.6195 8.37409 6.90553
126 1 -43.7499 7.69539 7.53482
127 1 -43.0929 7.31966 6.98304
128 1 -42.3394 7.0896 7.56258
129 1 -41.4584 6.84115 7.55425
130 1 -40.9813 6.89343 6.73025
131 1 -40.05 7.11843 6.51661
132 1 -39.1981 7.35921 6.91114
133 1 -38.712 6.99128 7.62527
134 1 -38.1362 6.30412 7.82963
135 1 -37.3939 6.34753 7.28519
136 1 -36.5818 6.32319 6.76416
137 1 -35.8798 6.62141 7.21362
138 1 -35.0845 6.35841 7.69396
139 1 -34.3909 6.70153 7.17022
140 1 -34.2484 6.35856 6.3128
141 1 -34.5165 5.55697 5.89587
142 1 -33.6454 5.36868 6.10078
143 1 -34.0852 4.61815 6.4081
144 1 -33.1904 4.30894 6.54118
145 1 -32.693 5.11387 6.3512
146 1 -31.9676 5.68649 6.23375
147 1 -31.6349 6.52879 6.15281
148 1 -32.4514 7.05238 5.88417
149 1 -32.3335 7.98714 5.99953
150 1 -32.3854 8.5716 5.26751
151 1 -32.8325 8.71609 4.41781
152 1 -32.5598 9.54168 4.00861
153 1 -32.5005 10.4644 4.06863
154 1 -32.4318 11.075 4.78768
155 1 -32.2346 10.7254 5.60181
156 1 -32.2738 10.8783 6.54705
157 1 -31.7818 10.6679 7.30425
158 1 -31.0798 10.5208 7.83636
159 1 -30.5938 11.3145 7.94627
160 1 -30.858 11.7137 7.18251
161 1 -30.2366 11.6647 6.45896
162 1 -29.6141 11.6097 7.1115
163 1 -28.8372 11.6398 7.65058
164 1 -28.6927 10.8516 8.2666
165 1 -28.0908 10.6002 9.00983
166 1 -27.5705 10.4117 9.7275
167 1 -26.66 10.4636 9.33849
168 1 -25.9171 10.4091 9.88272
169 1 -25.7577 10.7708 8.96998
170 1 -25.6329 9.8845 8.63659
171 1 -25.5231 9.37445 7.85088
172 1 -25.943 8.84444 7.1434
173 1 -25.8446 9.03672 6.19292
174 1 -25.706 9.95391 5.88398
175 1 -24.7759 9.84607 5.59656
176 1 -24.3417 9.55966 4.70204
177 1 -24.5164 9.21895 3.83775
178 1 -24.0796 8.45989 3.5251
179 1 -23.2212 8.78091 3.81841
180 1 -22.3234 8.74564 3.96917
181 1 -22.2538 8.36202 4.85372
182 1 -22.5154 8.19571 5.73628
183 1 -21.7138 7.66478 5.96188
184 1 -21.5898 6.80734 5.6863
185 1 -21.1287 6.11491 5.2469
186 1 -21.5773 5.53233 4.65305
187 1 -21.5832 4.67433 4.98527
188 1 -20.6989 4.74325 4.72261
189 1 -20.4825 3.93833 4.34682
190 1 -21.0326 3.20537 4.14797
191 1 -21.5622 3.91216 3.67468
192 1 -20.7591 4.01592 3.17745
193 1 -20.6732 3.20946 2.73878
194 1 -20.7 2.31013 2.98535
195 1 -21.0356 2.2144 3.85542
196 1 -20.3274 2.3923 4.4375
197 1 -19.8096 3.14111 4.73166
198 1 -19.249 2.53563 5.08017
199 1 -18.5 2.11146 4.62031
200 1 -17.8639 1.52191 4.36309
201 1 -17.3484 2.13635 3.89477
202 1 -17.0278 1.36287 3.40465
203 1 -16.4321 0.988099 4.05398
204 1 -16.7838 0.614192 4.84348
205 1 -16.9238 0.261735 5.68123
206 1 -16.8685 1.1665 6.06932
207 1 -17.3017 1.98587 6.04081
208 1 -17.0889 2.07872 6.9459
209 1 -16.4672 2.63285 6.48264
210 1 -15.9099 3.02242 7.08461
211 1 -15.1981 3.36779 7.60713
212 1 -15.1323 4.211 7.18509
213 1 -14.6905 4.75589 6.60053
214 1 -13.8963 5.0902 6.14966
215 1 -13.2974 4.97303 5.40598
216 1 -12.7899 5.73195 5.50406
217 1 -12.5935 6.63901 5.5361
218 1 -13.2168 6.69548 6.23004
219 1 -12.4546 6.36314 6.62757
220 1 -12.4057 5.78107 7.39485
221 1 -13.2427 6.14088 7.71077
222 1 -12.945 7.02447 8.07274
223 1 -12.4265 7.63445 7.63237
224 1 -12.1976 8.18946 8.3412
225 1 -11.4388 8.66541 8.10735
226 1 -11.9671 9.29036 7.65337
227 1 -11.2361 9.97676 7.63417
228 1 -10.7916 10.7257 7.93702
229 1 -10.305 11.5447 7.83912
230 1 -9.37863 11.9019 7.64618
231 1 -8.57151 12.0705 7.13767
232 1 -8.25199 11.6148 6.40154
233 1 -7.96593 10.9249 6.94879
234 1 -8.0737 10.41 7.78769
235 1 -7.96231 9.63665 8.31391
236 1 -7.47693 10.3555 8.79206
237 1 -6.76527 10.653 9.37896
238 1 -6.44411 10.0076 8.74437
239 1 -5.70564 9.82319 8.16567
240 1 -5.49991 10.2679 7.38647
241 1 -6.36591 10.6869 7.41208
242 1 -5.94659 11.4717 7.77085
243 1 -5.28202 11.3395 8.45651
244 1 -4.45398 11.8266 8.23041
245 1 -4.17132 12.5207 7.67267
246 1 -4.96328 12.9324 7.98019
247 1 -5.20903 13.1357 7.06945
248 1 -6.10026 12.9728 6.66898
249 1 -6.06238 12.7682 5.76177
250 1 -5.53382 12.6229 4.92872
251 1 -4.82724 12.0371 4.96475
252 1 -4.06103 12.1443 5.58848
253 1 -3.14716 12.1487 5.85551
254 1 -2.60819 11.8814 5.0581
255 1 -1.74101 12.2352 5.12102
256 1 -1.76161 12.9112 4.51736
257 1 -2.37258 12.9389 3.78199
258 1 -2.31852 13.7887 3.40968
259 1 -1.42887 13.5887 3.09089
260 1 -1.56308 14.1643 2.34445
261 1 -0.661142 14.0912 2.28918
262 1 -0.0770633 13.3769 2.39615
263 1 0.763667 13.1897 1.9762
264 1 0.917202 12.6673 1.20593
265 1 0.645517 13.087 0.395586
266 1 -0.144279 13.0103 -0.101263
267 1 -1.0448 13.0889 -0.200122
268 1 -1.78296 13.5454 -0.593494
269 1 -2.4851 13.5631 -0.0191587
270 1 -1.99639 14.2895 0.416897
271 1 -1.55387 14.3228 1.24365
272 1 -1.03472 13.5684 1.05977
273 1 -0.132015 13.3803 1.26319
274 1 -0.296405 12.4638 0.938449
275 1 -0.999954 12.1256 0.432295
276 1 -1.41063 11.6478 -0.207377
277 1 -0.574182 11.2777 -0.0887099
278 1 -0.699709 11.4706 -1.06804
279 1 -1.32087 11.5231 -1.81792
280 1 -1.65583 12.2126 -2.38849
281 1 -1.88816 12.6182 -3.19051
282 1 -1.27164 13.3037 -3.1247
283 1 -0.549267 13.014 -2.56719
284 1 -0.53192 13.9073 -2.40111
285 1 0.218402 14.1455 -2.88708
286 1 0.481623 14.0755 -1.97001
287 1 0.139037 15.0054 -2.08953
288 1 -0.0965923 15.676 -2.72747
289 1 0.366385 16.3088 -3.28271
290 1 1.23481 16.6875 -3.45698
291 1 1.9059 16.8278 -4.0944
292 1 1.54927 17.4774 -4.71529
293 1 1.2668 18.0809 -4.09229
294 1 0.582288 18.6703 -3.84374
295 1 -0.186866 18.4386 -4.39436
296 1 -0.699442 18.0046 -5.01753
297 1 -1.18017 18.2481 -5.82831
298 1 -0.483735 18.4265 -6.40188
299 1 -0.277737 19.2721 -6.82064
300 1 0.335689 19.6367 -6.1328
301 1 0.700841 19.0486 -5.50526
302 1 1.61076 18.6427 -5.34505
303 1 2.42375 18.8938 -4.9616
304 1 2.30432 19.7487 -4.57425
305 1 3.0458 20.0219 -4.19419
306 1 3.91748 20.4349 -4.06236
307 1 3.58359 21.3024 -3.77554
308 1 3.94083 21.6319 -4.64016
309 1 4.41271 22.2301 -4.15374
310 1 5.29433 22.4123 -4.34588
311 1 6.14979 22.7593 -4.18048
312 1 5.74068 23.289 -3.51356
313 1 6.01011 22.9424 -2.68615
314 1 6.02667 22.0864 -3.01335
315 1 6.1962 21.3461 -2.4424
316 1 7.0014 20.8136 -2.61259
317 1 7.59167 20.1177 -2.33462
318 1 8.09794 19.8216 -1.62332
319 1 8.26338 19.7474 -0.737332
320 1 8.97802 19.4897 -0.144185
321 1 8.62543 19.5755 0.750262
322 1 8.68964 19.8965 1.61921
323 1 8.26012 20.5795 1.13735
324 1 8.57627 21.3185 0.699641
325 1 7.75002 21.4519 1.09824
326 1 7.49366 20.9807 1.87281
327 1 7.26646 20.2022 2.4567
328 1 7.26354 19.203 2.46848
329 1 7.21366 19.0642 1.5283
330 1 6.97453 18.1207 1.43521
331 1 6.63623 17.3015 1.4642
332 1 6.26836 16.5752 1.89122
333 1 5.85272 16.8098 1.04099
334 1 5.69177 16.2039 0.395226
335 1 6.61311 15.8884 0.325801
336 1 6.35419 16.2024 -0.505271
337 1 6.86372 16.1253 -1.33729
338 1 7.04878 16.884 -0.882368
339 1 7.70576 16.8462 -0.176121
340 1 8.39565 17.4703 0.162061
341 1 8.88332 18.3275 -0.0259737
342 1 9.59932 18.6332 -0.554891
343 1 10.3481 18.3376 -1.01993
344 1 10.9203 18.744 -0.358608
345 1 11.5792 18.0881 -0.546141
346 1 12.3678 18.4299 -0.202547
347 1 13.0243 17.8496 0.179792
348 1 13.9047 17.5702 0.417741
349 1 14.3377 17.6146 1.23081
350 1 14.517 17.6064 2.16172
351 1 14.8166 17.7515 3.05176
352 1 15.1989 18.3749 3.62492
353 1 14.4036 18.5249 4.16357
354 1 14.4517 18.8229 5.04477
355 1 13.6618 18.9573 5.55028
356 1 13.2172 19.093 6.38073
357 1 12.8217 18.7277 7.13842
358 1 13.4927 19.3821 7.4336
359 1 13.9527 20.1323 7.76234
360 1 14.7946 20.0772 8.12069
361 1 15.5803 19.8106 7.74141
362 1 15.6473 19.8915 6.80762
363 1 16.5222 20.1113 7.13302
364 1 17.3639 20.1518 6.79224
365 1 17.487 19.2395 6.78774
366 1 18.1062 19.2146 6.13175
367 1 18.1665 19.9078 5.48092
368 1 18.5088 20.6849 5.04087
369 1 18.9248 20.7986 4.11316
370 1 19.5622 20.244 4.43205
371 1 19.8411 19.4607 4.0675
372 1 20.5433 18.9777 3.5803
373 1 20.7907 19.8915 3.62904
374 1 20.6125 20.5968 3.04345
375 1 19.8706 20.9443 2.58572
376 1 19.0782 20.4542 2.44891
377 1 18.4047 20.058 1.93651
378 1 18.7952 19.2963 2.46394
379 1 18.4821 18.8182 1.68515
380 1 19.1271 18.1922 1.59457
381 1 19.6017 18.6446 0.858669
382 1 20.5329 18.7595 1.08408
383 1 21.162 18.1109 0.837564
384 1 21.8993 17.5188 0.767103
385 1 21.5515 16.7057 0.280723
386 1 21.9161 16.3777 -0.528294
387 1 22.7563 16.1019 -0.796443
388 1 22.751 16.4746 -1.67885
389 1 22.7297 15.9059 -2.41318
390 1 23.0618 15.0801 -2.77577
391 1 22.7335 15.3825 -3.52645
392 1 21.857 15.1858 -3.86786
393 1 21.6944 15.1361 -2.88989
394 1 21.7708 14.257 -2.8727
395 1 22.4465 13.7346 -2.49627
396 1 23.001 13.4766 -3.19325
397 1 22.7013 12.8889 -3.89694
398 1 23.4482 12.4011 -4.21756
399 1 24.1652 13.0437 -3.95487
400 1 24.9838 13.5287 -3.98202
401 1 25.6226 13.6527 -4.59407
402 1 25.7869 13.0292 -5.34455
403 1 26.0778 12.2206 -4.94031
404 1 26.3191 11.5565 -4.32836
405 1 26.5804 11.2791 -3.42087
406 1 26.5087 12.1061 -2.95096
407 1 26.1183 12.9103 -2.6022
408 1 26.4317 12.5308 -1.8253
409 1 27.2698 12.8782 -2.04007
410 1 27.7821 12.4144 -2.69218
411 1 27.9885 12.8854 -3.48814
412 1 28.9518 12.7895 -3.37571
413 1 28.7301 12.9893 -2.49301
414 1 28.2933 13.221 -1.68736
415 1 27.9319 12.3941 -1.26439
416 1 28.1821 11.4603 -1.24302
417 1 28.9482 12.0243 -1.20814
418 1 28.9939 11.4579 -0.465674
419 1 29.2559 12.2948 -0.221892
420 1 28.9581 13.0172 0.272516
421 1 28.9726 13.1013 1.18621
422 1 28.6897 13.6615 1.85722
423 1 28.1676 13.1494 2.4349
424 1 27.7416 12.8381 3.23586
425 1 27.039 12.4869 3.76952
426 1 26.0472 12.5868 3.93132
427 1 25.5324 13.3152 4.29077
428 1 25.3056 13.9443 3.68045
429 1 24.5326 14.0102 3.10061
430 1 24.0268 14.5909 2.5836
431 1 23.8735 15.3091 1.97096
432 1 24.0012 15.7699 1.1392
433 1 24.7742 15.5252 0.647078
434 1 25.6424 15.7087 0.439982
435 1 26.0016 15.7106 1.33464
436 1 26.0075 14.9567 1.93904
437 1 26.8382 14.6302 2.33128
438 1 26.8872 14.2432 3.17303
439 1 26.6638 14.4898 4.16141
440 1 27.063 15.1508 3.65022
441 1 28.0282 15.1487 3.57419
442 1 28.4005 14.3117 3.78211
443 1 29.2361 14.8421 3.64583
444 1 30.0306 14.5409 4.04598
445 1 30.8807 14.5548 3.68149
446 1 31.4176 14.6085 2.92177
447 1 32.2199 14.568 2.36118
448 1 32.8145 14.3772 1.64757
449 1 33.5273 13.9273 2.07549
450 1 34.1208 13.171 2.06392
451 1 33.8845 13.0887 2.99295
452 1 33.6881 12.6632 3.8582
453 1 34.1737 12.0281 4.40692
454 1 34.8128 11.3638 4.46124
455 1 35.7434 11.551 4.70767
456 1 36.0599 11.0051 3.97369
457 1 36.8441 11.551 3.78753