ITEM: TIMESTEP
0
ITEM: NUMBER OF ATOMS
512
ITEM: BOX BOUNDS mm mm mm
-2.5600000000000000e+02 2.5600000000000000e+02
-2.5600000000000000e+02 2.5600000000000000e+02
-2.5600000000000000e+02 2.5600000000000000e+02
ITEM: ATOMS id type x y z
1 1 -243.2 0 0
2 1 -242.25 0 0
3 1 -241.3 0 0
4 1 -240.35 0 0
5 1 -239.4 0 0
6 1 -238.45 0 0
7 1 -237.5 0 0
8 1 -236.55 0 0
9 1 -235.6 0 0
10 1 -234.65 0 0
11 1 -233.7 0 0
12 1 -232.75 0 0
13 1 -231.8 0 0
14 1 -230.85 0 0
15 1 -229.9 0 0
16 1 -228.95 0 0
17 1 -228 0 0
18 1 -227.05 0 0
19 1 -226.1 0 0
20 1 -225.15 0 0
21 1 -224.2 0 0
22 1 -223.25 0 0
23 1 -222.3 0 0
24 1 -221.35 0 0
25 1 -220.4 0 0
26 1 -219.45 0 0
27 1 -218.5 0 0
28 1 -217.55 0 0
29 1 -216.6 0 0
30 1 -215.65 0 0
31 1 -214.7 0 0
32 1 -213.75 0 0
33 1 -212.8 0 0
34 1 -211.85 0 0
35 1 -210.9 0 0
36 1 -209.95 0 0
37 1 -209 0 0
38 1 -208.05 0 0
39 1 -207.1 0 0
40 1 -206.15 0 0
41 1 -205.2 0 0
42 1 -204.25 0 0
43 1 -203.3 0 0
44 1 -202.35 0 0
45 1 -201.4 0 0
46 1 -200.45 0 0
47 1 -199.5 0 0
48 1 -198.55 0 0
49 1 -197.6 0 0
50 1 -196.65 0 0
51 1 -195.7 0 0
52 1 -194.75 0 0
53 1 -193.8 0 0
54 1 -192.85 0 0
55 1 -191.9 0 0
56 1 -190.95 0 0
57 1 -190 0 0
58 1 -189.05 0 0
59 1 -188.1 0 0
60 1 -187.15 0 0
61 1 -186.2 0 0
62 1 -185.25 0 0
63 1 -184.3 0 0
64 1 -183.35 0 0
65 1 -182.4 0 0
66 1 -181.45 0 0
67 1 -180.5 0 0
68 1 -179.55 0 0
69 1 -178.6 0 0
70 1 -177.65 0 0
71 1 -176.7 0 0
72 1 -175.75 0 0
73 1 -174.8 0 0
74 1 -173.85 0 0
75 1 -172.9 0 0
76 1 -171.95 0 0
77 1 -171 0 0
78 1 -170.05 0 0
79 1 -169.1 0 0
80 1 -168.15 0 0
81 1 -167.2 0 0
82 1 -166.25 0 0
83 1 -165.3 0 0
84 1 -164.35 0 0
85 1 -163.4 0 0
86 1 -162.45 0 0
87 1 -161.5 0 0
88 1 -160.55 0 0
89 1 -159.6 0 0
90 1 -158.65 0 0
91 1 -157.7 0 0
92 1 -156.75 0 0
93 1 -155.8 0 0
94 1 -154.85 0 0
95 1 -153.9 0 0
96 1 -152.95 0 0
97 1 -152 0 0
98 1 -151.05 0 0
99 1 -150.1 0 0
100 1 -149.15 0 0
101 1 -148.2 0 0
102 1 -147.25 0 0
103 1 -146.3 0 0
104 1 -145.35 0 0
105 1 -144.4 0 0
106 1 -143.45 0 0
107 1 -142.5 0 0
108 1 -141.55 0 0
109 1 -140.6 0 0
110 1 -139.65 0 0
111 1 -138.7 0 0
112 1 -137.75 0 0
113 1 -136.8 0 0
114 1 -135.85 0 0
115 1 -134.9 0 0
116 1 -133.95 0 0
117 1 -133 0 0
118 1 -132.05 0 0
119 1 -131.1 0 0
120 1 -130.15 0 0
121 1 -129.2 0 0
122 1 -128.25 0 0
123 1 -127.3 0 0
124 1 -126.35 0 0
125 1 -125.4 0 0
126 1 -124.45 0 0
127 1 -123.5 0 0
128 1 -122.55 0 0
129 1 -121.6 0 0
130 1 -120.65 0 0
131 1 -119.7 0 0
132 1 -118.75 0 0
133 1 -117.8 0 0
134 1 -116.85 0 0
135 1 -115.9 0 0
136 1 -114.95 0 0
137 1 -114 0 0
138 1 -113.05 0 0
139 1 -112.1 0 0
140 1 -111.15 0 0
141 1 -110.2 0 0
142 1 -109.25 0 0
143 1 -108.3 0 0
144 1 -107.35 0 0
145 1 -106.4 0 0
146 1 -105.45 0 0
147 1 -104.5 0 0
148 1 -103.55 0 0
149 1 -102.6 0 0
150 1 -101.65 0 0
151 1 -100.7 0 0
152 1 -99.75 0 0
153 1 -98.8 0 0
154 1 -97.85 0 0
155 1 -96.9 0 0
156 1 -95.95 0 0
157 1 -95 0 0
158 1 -94.05 0 0
159 1 -93.1 0 0
160 1 -92.15 0 0
161 1 -91.2 0 0
162 1 -90.25 0 0
163 1 -89.3 0 0
164 1 -88.35 0 0
165 1 -87.4 0 0
166 1 -86.45 0 0
167 1 -85.5 0 0
168 1 -84.55 0 0
169 1 -83.6 0 0
170 1 -82.65 0 0
171 1 -81.7 0 0
172 1 -80.75 0 0
173 1 -79.8 0 0
174 1 -78.85 0 0
175 1 -77.9 0 0
176 1 -76.95 0 0
177 1 -76 0 0
178 1 -75.05 0 0
179 1 -74.1 0 0
180 1 -73.15 0 0
181 1 -72.2 0 0
182 1 -71.25 0 0
183 1 -70.3 0 0
184 1 -69.35 0 0
185 1 -68.4 0 0
186 1 -67.45 0 0
187 1 -66.5 0 0
188 1 -65.55 0 0
189 1 -64.6 0 0
190 1 -63.65 0 0
191 1 -62.7 0 0
192 1 -61.75 0 0
193 1 -60.8 0 0
194 1 -59.85 0 0
195 1 -58.9 0 0
196 1 -57.95 0 0
197 1 -57 0 0
198 1 -56.05 0 0
199 1 -55.1 0 0
200 1 -54.15 0 0
201 1 -53.2 0 0
202 1 -52.25 0 0
203 1 -51.3 0 0
204 1 -50.35 0 0
205 1 -49.4 0 0
206 1 -48.45 0 0
207 1 -47.5 0 0
208 1 -46.55 0 0
209 1 -45.6 0 0
210 1 -44.65 0 0
211 1 -43.7 0 0
212 1 -42.75 0 0
213 1 -41.8 0 0
214 1 -40.85 0 0
215 1 -39.9 0 0
216 1 -38.95 0 0
217 1 -38 0 0
218 1 -37.05 0 0
219 1 -36.1 0 0
220 1 -35.15 0 0
221 1 -34.2 0 0
222 1 -33.25 0 0
223 1 -32.3 0 0
224 1 -31.35 0 0
225 1 -30.4 0 0
226 1 -29.45 0 0
227 1 -28.5 0 0
228 1 -27.55 0 0
229 1 -26.6 0 0
230 1 -25.65 0 0
231 1 -24.7 0 0
232 1 -23.75 0 0
233 1 -22.8 0 0
234 1 -21.85 0 0
235 1 -20.9 0 0
236 1 -19.95 0 0
237 1 -19 0 0
238 1 -18.05 0 0
239 1 -17.1 0 0
240 1 -16.15 0 0
241 1 -15.2 0 0
242 1 -14.25 0 0
243 1 -13.3 0 0
244 1 -12.35 0 0
245 1 -11.4 0 0
246 1 -10.45 0 0
247 1 -9.5 0 0
248 1 -8.55 0 0
249 1 -7.6 0 0
250 1 -6.65 0 0
251 1 -5.7 0 0
252 1 -4.75 0 0
253 1 -3.8 0 0
254 1 -2.85 0 0
255 1 -1.9 0 0
256 1 -0.95 0 0
257 1 0 0 0
258 1 0.95 0 0
259 1 1.9 0 0
260 1 2.85 0 0
261 1 3.8 0 0
262 1 4.75 0 0
263 1 5.7 0 0
264 1 6.65 0 0
265 1 7.6 0 0
266 1 8.55 0 0
267 1 9.5 0 0
268 1 10.45 0 0
269 1 11.4 0 0
270 1 12.35 0 0
271 1 13.3 0 0
272 1 14.25 0 0
273 1 15.2 0 0
274 1 16.15 0 0
275 1 17.1 0 0
276 1 18.05 0 0
277 1 19 0 0
278 1 19.95 0 0
279 1 20.9 0 0
280 1 21.85 0 0
281 1 22.8 0 0
282 1 23.75 0 0
283 1 24.7 0 0
284 1 25.65 0 0
285 1 26.6 0 0
286 1 27.55 0 0
287 1 28.5 0 0
288 1 29.45 0 0
289 1 30.4 0 0
290 1 31.35 0 0
291 1 32.3 0 0
292 1 33.25 0 0
293 1 34.2 0 0
294 1 35.15 0 0
295 1 36.1 0 0
296 1 37.05 0 0
297 1 38 0 0
298 1 38.95 0 0
299 1 39.9 0 0
300 1 40.85 0 0
301 1 41.8 0 0
302 1 42.75 0 0
303 1 43.7 0 0
304 1 44.65 0 0
305 1 45.6 0 0
306 1 46.55 0 0
307 1 47.5 0 0
308 1 48.45 0 0
309 1 49.4 0 0
310 1 50.35 0 0
311 1 51.3 0 0
312 1 52.25 0 0
313 1 53.2 0 0
314 1 54.15 0 0
315 1 55.1 0 0
316 1 56.05 0 0
317 1 57 0 0
318 1 57.95 0 0
319 1 58.9 0 0
320 1 59.85 0 0
321 1 60.8 0 0
322 1 61.75 0 0
323 1 62.7 0 0
324 1 63.65 0 0
325 1 64.6 0 0
326 1 65.55 0 0
327 1 66.5 0 0
328 1 67.45 0 0
329 1 68.4 0 0
330 1 69.35 0 0
331 1 70.3 0 0
332 1 71.25 0 0
333 1 72.2 0 0
334 1 73.15 0 0
335 1 74.1 0 0
336 1 75.05 0 0
337 1 76 0 0
338 1 76.95 0 0
339 1 77.9 0 0
340 1 78.85 0 0
341 1 79.8 0 0
342 1 80.75 0 0
343 1 81.7 0 0
344 1 82.65 0 0
345 1 83.6 0 0
346 1 84.55 0 0
347 1 85.5 0 0
348 1 86.45 0 0
349 1 87.4 0 0
350 1 88.35 0 0
351 1 89.3 0 0
352 1 90.25 0 0
353 1 91.2 0 0
354 1 92.15 0 0
355 1 93.1 0 0
356 1 94.05 0 0
357 1 95 0 0
358 1 95.95 0 0
359 1 96.9 0 0
360 1 97.85 0 0
361 1 98.8 0 0
362 1 99.75 0 0
363 1 100.7 0 0
364 1 101.65 0 0
365 1 102.6 0 0
366 1 103.55 0 0
367 1 104.5 0 0
368 1 105.45 0 0
369 1 106.4 0 0
370 1 107.35 0 0
371 1 108.3 0 0
372 1 109.25 0 0
373 1 110.2 0 0
374 1 111.15 0 0
375 1 112.1 0 0
376 1 113.05 0 0
377 1 114 0 0
378 1 114.95 0 0
379 1 115.9 0 0
380 1 116.85 0 0
381 1 117.8 0 0
382 1 118.75 0 0
383 1 119.7 0 0
384 1 120.65 0 0
385 1 121.6 0 0
386 1 122.55 0 0
387 1 123.5 0 0
388 1 124.45 0 0
389 1 125.4 0 0
390 1 126.35 0 0
391 1 127.3 0 0
392 1 128.25 0 0
393 1 129.2 0 0
394 1 130.15 0 0
395 1 131.1 0 0
396 1 132.05 0 0
397 1 133 0 0
398 1 133.95 0 0
399 1 134.9 0 0
400 1 135.85 0 0
401 1 136.8 0 0
402 1 137.75 0 0
403 1 138.7 0 0
404 1 139.65 0 0
405 1 140.6 0 0
406 1 141.55 0 0
407 1 142.5 0 0
408 1 143.45 0 0
409 1 144.4 0 0
410 1 145.35 0 0
411 1 146.3 0 0
412 1 147.25 0 0
413 1 148.2 0 0
414 1 149.15 0 0
415 1 150.1 0 0
416 1 151.05 0 0
417 1 152 0 0
418 1 152.95 0 0
419 1 153.9 0 0
420 1 154.85 0 0
421 1 155.8 0 0
422 1 156.75 0 0
423 1 157.7 0 0
424 1 158.65 0 0
425 1 159.6 0 0
426 1 160.55 0 0
427 1 161.5 0 0
428 1 162.45 0 0
429 1 163.4 0 0
430 1 164.35 0 0
431 1 165.3 0 0
432 1 166.25 0 0
433 1 167.2 0 0
434 1 168.15 0 0
435 1 169.1 0 0
436 1 170.05 0 0
437 1 171 0 0
438 1 171.95 0 0
439 1 172.9 0 0
440 1 173.85 0 0
441 1 174.8 0 0
442 1 175.75 0 0
443 1 176.7 0 0
444 1 177.65 0 0
445 1 178.6 0 0
446 1 179.55 0 0
447 1 180.5 0 0
448 1 181.45 0 0
449 1 182.4 0 0
450 1 183.35 0 0
451 1 184.3 0 0
452 1 185.25 0 0
453 1 186.2 0 0
454 1 187.15 0 0
455 1 188.1 0 0
456 1 189.05 0 0
457 1 190 0 0
458 1 190.95 0 0
459 1 191.9 0 0
460 1 192.85 0 0
461 1 193.8 0 0
462 1 194.75 0 0
463 1 195.7 0 0
464 1 196.65 0 0
465 1 197.6 0 0
466 1 198.55 0 0
467 1 199.5 0 0
468 1 200.45 0 0
469 1 201.4 0 0
470 1 202.35 0 0
471 1 203.3 0 0
472 1 204.25 0 0
473 1 205.2 0 0
474 1 206.15 0 0
475 1 207.1 0 0
476 1 208.05 0 0
477 1 209 0 0
478 1 209.95 0 0
479 1 210.9 0 0
480 1 211.85 0 0
481 1 212.8 0 0
482 1 213.75 0 0
483 1 214.7 0 0
484 1 215.65 0 0
485 1 216.6 0 0
486 1 217.55 0 0
487 1 218.5 0 0
488 1 219.45 0 0
489 1 220.4 0 0
490 1 221.35 0 0
491 1 222.3 0 0
492 1 223.25 0 0
493 1 224.2 0 0
494 1 225.15 0 0
495 1 226.1 0 0
496 1 227.05 0 0
497 1 228 0 0
498 1 228.95 0 0
499 1 229.9 0 0
500 1 230.85 0 0
501 1 231.8 0 0
502 1 232.75 0 0
503 1 233.7 0 0
504 1 234.65 0 0
505 1 235.6 0 0
506 1 236.55 0 0
507 1 237.5 0 0
508 1 238.45 0 0
509 1 239.4 0 0
510 1 240.35 0 0
511 1 241.3 0 0
512 1 242.25 0 0
ITEM: TIMESTEP
10000
ITEM: NUMBER OF ATOMS
512
ITEM: BOX BOUNDS mm mm mm
-2.5600000000000000e+02 2.5600000000000000e+02
-2.5600000000000000e+02 2.5600000000000000e+02
-2.5600000000000000e+02 2.5600000000000000e+02
ITEM: ATOMS id type x y z
1 1 -241.923 3.38823 -8.82701
2 1 -241.54 3.2753 -7.74069
3 1 -241.096 3.29117 -6.74104
4 1 -240.616 3.57221 -5.64573
5 1 -240.151 3.6308 -4.67991
6 1 -239.354 3.56034 -3.79896
7 1 -238.548 3.49777 -2.86979
8 1 -237.975 3.21324 -2.15651
9 1 -237.495 3.06824 -1.14664
10 1 -237.041 2.74874 -0.117954
11 1 -236.3 2.59918 0.767728
12 1 -235.407 2.59634 1.35973
13 1 -234.564 2.66417 2.10208
14 1 -233.455 2.77621 2.48845
15 1 -232.432 3.08957 2.81762
16 1 -231.413 3.77812 3.10381
17 1 -230.75 4.347 3.45414
18 1 -229.779 4.56715 3.47697
19 1 -228.78 4.7275 3.76566
20 1 -227.708 4.83092 4.07412
21 1 -226.6 4.85301 4.25338
22 1 -225.566 4.6743 4.27252
23 1 -224.465 4.38844 4.30375
24 1 -223.534 3.89374 4.26268
25 1 -222.707 3.27908 4.12395
26 1 -221.889 2.51211 4.00219
27 1 -221.175 1.8151 3.49211
28 1 -220.283 1.40501 3.02037
29 1 -219.213 0.981795 2.65452
30 1 -217.943 1.04461 2.42759
31 1 -216.705 1.12118 2.38217
32 1 -215.634 1.71151 2.30633
33 1 -214.544 1.8321 2.33515
34 1 -213.496 1.96517 2.33047
35 1 -212.596 1.428 2.12318
36 1 -211.548 1.17628 2.14326
37 1 -210.596 1.19768 2.1008
38 1 -209.521 0.587742 2.3078
39 1 -208.531 0.57135 2.65684
40 1 -207.448 0.938274 2.74979
41 1 -206.466 1.36158 3.14679
42 1 -205.6 1.98502 3.31717
43 1 -204.604 2.33463 3.39086
44 1 -203.423 2.28697 3.6107
45 1 -202.404 2.48512 3.81573
46 1 -201.324 2.63801 3.72386
47 1 -200.261 2.70732 3.9743
48 1 -199.061 2.49805 4.10391
49 1 -197.987 2.187 4.04483
50 1 -196.818 2.21433 4.04048
51 1 -195.749 2.20584 3.97332
52 1 -194.852 2.15928 3.47234
53 1 -193.862 1.72101 3.01196
54 1 -192.975 1.34724 2.53556
55 1 -191.995 0.900477 2.02153
56 1 -191.094 0.574603 1.5235
57 1 -190.139 0.242093 0.846047
58 1 -189.225 0.552089 0.172268
59 1 -188.46 0.669825 -0.489947
60 1 -187.813 -0.041551 -1.13233
61 1 -187.01 -0.615416 -1.4804
62 1 -186.186 -1.33902 -1.43254
63 1 -185.382 -1.97312 -1.32376
64 1 -184.598 -2.62798 -1.0309
65 1 -183.532 -3.04977 -0.623726
66 1 -182.478 -3.3212 -0.459378
67 1 -181.521 -3.43696 -0.187307
68 1 -180.493 -3.53589 0.0991265
69 1 -179.492 -3.53595 0.29485
70 1 -178.423 -3.38447 0.322832
71 1 -177.358 -3.15046 -0.0540984
72 1 -176.503 -2.55531 -0.234954
73 1 -175.536 -2.05739 -0.463967
74 1 -175.034 -1.20426 -0.794208
75 1 -174.221 -0.398625 -1.22748
76 1 -173.296 0.334914 -1.51614
77 1 -172.221 0.806683 -1.64551
78 1 -171.333 1.17492 -1.86835
79 1 -170.271 1.69696 -1.8498
80 1 -169.189 1.61951 -2.3477
81 1 -168.189 1.45728 -2.77692
82 1 -167.23 1.1776 -3.44029
83 1 -166.186 0.941543 -3.92231
84 1 -165.162 0.82369 -4.09795
85 1 -164.193 0.615758 -4.53198
86 1 -163.108 0.290176 -4.67952
87 1 -161.848 0.258809 -4.75308
88 1 -160.731 0.435188 -4.57027
89 1 -159.889 0.85241 -4.03475
90 1 -158.961 1.00046 -3.67395
91 1 -157.978 1.3359 -3.3597
92 1 -157.187 1.80416 -3.19741
93 1 -156.086 2.17642 -3.12603
94 1 -155.111 2.37024 -2.7068
95 1 -154.035 2.68956 -2.34966
96 1 -152.983 2.77122 -2.07636
97 1 -152.068 2.26632 -1.84539
98 1 -151.049 1.65293 -1.7254
99 1 -149.963 1.33028 -1.29707
100 1 -148.903 1.05429 -0.970872
101 1 -148.008 0.916526 -0.30297
102 1 -146.989 0.746631 0.105878
103 1 -145.908 0.667537 0.411218
104 1 -144.814 0.456176 0.265125
105 1 -143.757 0.682638 0.518357
106 1 -142.87 1.36752 0.583791
107 1 -141.776 1.43398 0.82387
108 1 -140.598 1.56033 0.791715
109 1 -139.439 1.17192 1.00227
110 1 -138.41 0.613238 1.0802
111 1 -137.338 0.290711 1.53595
112 1 -136.207 0.492797 1.44347
113 1 -135.172 0.489814 1.33051
114 1 -134.13 0.676216 1.43393
115 1 -133.123 0.840169 1.28747
116 1 -132.076 0.740662 0.923822
117 1 -130.993 0.410278 0.951398
118 1 -130.034 0.0650012 0.96549
119 1 -129 0.0613471 0.739401
120 1 -127.932 0.209972 0.383183
121 1 -126.932 0.253918 0.0307675
122 1 -125.892 -0.378339 0.00325111
123 1 -124.853 -0.800186 -0.269447
124 1 -123.869 -1.44696 -0.582209
125 1 -122.812 -1.73991 -0.813808
126 1 -121.823 -2.44485 -1.00781
127 1 -120.955 -2.87692 -1.44966
128 1 -119.904 -3.13055 -1.88473
129 1 -118.999 -3.39488 -2.6367
130 1 -118.042 -3.73453 -3.02912
131 1 -117.106 -3.9277 -3.47731
132 1 -116.205 -4.02076 -4.01052
133 1 -115.223 -3.43919 -4.33996
134 1 -114.259 -3.18734 -4.79955
135 1 -113.166 -2.85877 -4.69632
136 1 -111.996 -2.85673 -5.02158
137 1 -110.881 -3.25218 -4.8902
138 1 -109.883 -3.44817 -4.72317
139 1 -108.834 -3.55899 -4.29794
140 1 -107.585 -3.26365 -4.11629
141 1 -106.652 -2.96547 -3.98763
142 1 -105.649 -2.48026 -3.76805
143 1 -104.815 -1.88865 -3.19985
144 1 -103.874 -1.38004 -2.92629
145 1 -102.922 -0.920718 -2.73457
146 1 -101.937 -0.452497 -2.40251
147 1 -100.917 -0.281941 -2.00925
148 1 -99.8856 -0.434233 -2.01974
149 1 -98.6906 -0.563682 -1.91131
150 1 -97.7266 -0.984036 -1.37276
151 1 -96.931 -1.3467 -0.715278
152 1 -96.0588 -1.49858 0.0561214
153 1 -95.4038 -1.25511 0.960555
154 1 -94.4989 -0.678813 1.28267
155 1 -93.5725 -0.209771 1.32144
156 1 -92.6153 0.0718239 1.59717
157 1 -91.6494 0.20224 1.873
158 1 -90.6848 0.117879 2.39223
159 1 -89.9251 -0.271293 2.97687
160 1 -88.9217 -0.768206 2.97762
161 1 -87.8967 -1.28151 2.81843
162 1 -86.9567 -1.42679 2.25696
163 1 -86.0912 -1.64913 1.73978
164 1 -85.4287 -1.76446 0.839714
165 1 -84.2705 -1.98288 0.460966
166 1 -83.1398 -1.83501 0.490764
167 1 -82.2161 -1.85019 0.810591
168 1 -81.1505 -1.83765 0.493931
169 1 -80.0968 -1.67846 0.0951009
170 1 -79.3825 -1.16487 -0.575216
171 1 -79.0289 -0.637957 -1.33908
172 1 -78.3626 -0.0593239 -2.15948
173 1 -77.6167 0.558573 -2.80676
174 1 -77.1359 1.56377 -3.16782
175 1 -76.6316 2.66669 -3.26025
176 1 -76.1651 3.3541 -3.90462
177 1 -75.4196 3.78735 -4.71337
178 1 -74.6128 4.23576 -5.06381
179 1 -73.5479 4.6132 -5.11209
180 1 -72.4156 4.69983 -5.22843
181 1 -71.2855 4.83295 -5.66309
182 1 -70.3648 5.12776 -5.6776
183 1 -69.1861 4.99675 -5.35485
184 1 -68.2615 5.14056 -5.18586
185 1 -67.1993 5.53883 -5.01678
186 1 -66.2793 5.91849 -4.8591
187 1 -65.3007 5.84174 -4.41205
188 1 -64.5551 5.37707 -3.77702
189 1 -63.9682 4.93165 -3.2851
190 1 -63.2413 4.37785 -2.67478
191 1 -62.4971 3.696 -2.16668
192 1 -61.6553 3.34897 -2.07251
193 1 -60.7968 3.45576 -1.41423
194 1 -59.7875 3.79642 -1.15802
195 1 -58.62 4.10032 -1.48542
196 1 -57.4629 3.91898 -1.43894
197 1 -56.3779 4.1866 -1.54317
198 1 -55.3834 4.48209 -1.59137
199 1 -54.2954 4.83133 -1.74217
200 1 -53.1954 5.06331 -1.65215
201 1 -51.9288 4.9012 -1.53286
202 1 -50.9961 4.53671 -1.30783
203 1 -50.0272 3.82078 -1.3198
204 1 -49.1748 2.9892 -1.16112
205 1 -48.108 2.53072 -1.03438
206 1 -47.0646 2.10279 -1.0601
207 1 -46.0035 1.66799 -1.3223
208 1 -44.9053 1.66311 -1.21122
209 1 -43.8454 1.82481 -1.03129
210 1 -42.8013 1.93085 -1.21866
211 1 -41.9053 1.96754 -1.43352
212 1 -40.8707 2.21392 -1.79532
213 1 -39.9487 2.80513 -1.93869
214 1 -39.1114 3.22526 -2.40823
215 1 -38.0623 3.45462 -2.75191
216 1 -37.1008 3.97801 -3.09315
217 1 -36.2949 4.84969 -3.25449
218 1 -35.4694 5.6461 -3.58134
219 1 -34.6924 6.31998 -3.79929
220 1 -33.6305 6.73449 -3.90674
221 1 -32.6095 7.0173 -3.85281
222 1 -31.5109 7.10563 -3.71078
223 1 -30.6263 7.19627 -3.30995
224 1 -29.7684 7.6935 -2.78268
225 1 -28.8543 7.99231 -2.26184
226 1 -27.8661 7.84236 -2.07919
227 1 -26.8969 7.49172 -2.35969
228 1 -25.8379 7.62625 -2.79465
229 1 -24.9267 7.18257 -3.07546
230 1 -23.8679 6.67103 -3.22728
231 1 -22.9039 6.11225 -3.27803
232 1 -22.1645 5.36784 -3.34642
233 1 -21.285 4.58136 -3.3372
234 1 -20.4365 3.71161 -3.14702
235 1 -19.7516 2.85508 -2.94784
236 1 -19.078 2.18319 -2.54148
237 1 -18.5931 1.22839 -2.13005
238 1 -18.0627 0.649571 -1.43138
239 1 -17.4019 -0.0642385 -0.707658
240 1 -16.5003 -0.505991 0.128743
241 1 -15.9494 -1.20349 0.759512
242 1 -15.1338 -1.9732 0.820182
243 1 -14.4963 -2.9144 0.550438
244 1 -13.5219 -3.29842 0.034564
245 1 -12.6526 -3.29105 -0.543269
246 1 -11.6768 -3.24999 -0.955948
247 1 -10.7135 -3.3393 -1.07221
248 1 -9.56199 -3.46542 -1.10001
249 1 -8.58208 -3.35871 -1.10903
250 1 -7.52269 -3.06236 -1.40097
251 1 -6.50874 -2.58242 -0.912991
252 1 -5.67108 -2.12189 -0.512264
253 1 -4.77055 -1.60471 -0.230927
254 1 -3.73476 -1.08922 -0.140664
255 1 -2.84467 -0.58216 0.0346787
256 1 -1.94041 -0.0866483 0.252119
257 1 -0.912401 0.283081 0.480354
258 1 0.146083 0.717071 0.229832
259 1 1.07009 1.15264 -0.0725609
260 1 1.93332 1.27276 -0.831683
261 1 2.48765 1.69396 -1.79033
262 1 3.34638 1.89518 -2.39788
263 1 4.38668 1.9608 -2.6949
264 1 5.36072 2.11426 -3.29238
265 1 6.62178 2.34278 -3.30328
266 1 7.53122 2.69921 -3.62343
267 1 8.57878 2.62071 -4.01633
268 1 9.60091 2.8021 -3.95311
269 1 10.473 3.34525 -3.96802
270 1 11.3913 3.70179 -3.60982
271 1 12.1833 4.26721 -3.06802
272 1 12.9322 4.64437 -2.35506
273 1 13.7196 4.9509 -2.01069
274 1 14.772 5.32112 -1.71685
275 1 15.8919 5.43262 -1.43915
276 1 16.9108 5.2086 -1.16898
277 1 17.7423 4.7056 -0.736691
278 1 18.3431 3.99725 -0.225841
279 1 19.0144 3.33304 0.230654
280 1 20.0527 2.68637 0.489791
281 1 20.9633 2.16718 0.540789
282 1 21.9989 1.66965 0.362534
283 1 23.1196 1.31466 0.420858
284 1 24.0121 0.840641 0.488924
285 1 24.7815 0.21322 0.522563
286 1 25.6309 -0.651225 0.502707
287 1 26.3413 -1.4809 0.716636
288 1 27.0815 -2.12226 0.983176
289 1 27.9796 -2.65446 1.51699
290 1 29.0407 -2.63249 1.90769
291 1 29.9249 -2.47499 2.4129
292 1 30.9215 -2.09193 2.55089
293 1 32.0021 -1.91549 2.50527
294 1 33.1047 -2.11427 2.47999
295 1 34.2016 -2.0385 2.35332
296 1 35.3307 -2.07833 2.33718
297 1 36.277 -2.14848 2.6469
298 1 37.2946 -2.47418 2.94877
299 1 38.2295 -2.7097 3.02996
300 1 39.3556 -2.84118 2.79301
301 1 40.4605 -3.08714 2.7756
302 1 41.6221 -3.17672 2.84351
303 1 42.8223 -3.24422 2.94057
304 1 43.9554 -3.38244 3.07789
305 1 45.0814 -3.88414 3.33593
306 1 46.1837 -4.04064 3.21853
307 1 47.2251 -4.05345 3.18225
308 1 48.1436 -3.55741 3.2352
309 1 49.1716 -3.16678 3.27041
310 1 50.0256 -2.57826 2.88613
311 1 51.0014 -2.16982 2.83415
312 1 52.0976 -2.07195 2.65768
313 1 53.0192 -2.30369 2.17607
314 1 53.8665 -2.41161 1.55454
315 1 54.9853 -2.20479 0.946997
316 1 55.9087 -2.03121 0.492407
317 1 57.0112 -1.76091 0.464669
318 1 58.0829 -1.62757 -0.00453337
319 1 59.1316 -1.43408 -0.35026
320 1 60.2001 -1.51428 -0.594275
321 1 61.2852 -1.57618 -1.06372
322 1 62.1936 -1.57922 -1.51115
323 1 63.1549 -1.67118 -1.76208
324 1 64.3385 -1.73217 -1.72522
325 1 65.4803 -1.53872 -2.01617
326 1 66.6565 -1.42312 -2.11722
327 1 67.7127 -1.65371 -2.16719
328 1 68.7143 -1.98661 -1.70318
329 1 69.734 -1.94667 -1.33226
330 1 70.8472 -2.15516 -1.13169
331 1 72.0209 -2.43691 -1.29497
332 1 73.0969 -2.76315 -1.3682
333 1 73.851 -3.32554 -1.32697
334 1 74.4008 -4.16393 -1.32857
335 1 74.899 -4.98958 -1.63583
336 1 75.7412 -5.38901 -2.23348
337 1 76.513 -6.06781 -2.55577
338 1 77.3046 -6.72478 -3.01594
339 1 78.0063 -7.12883 -3.62582
340 1 79.092 -7.12015 -4.11789
341 1 79.9351 -6.66147 -4.47659
342 1 80.8544 -5.84103 -4.60614
343 1 81.5735 -5.18847 -4.73377
344 1 82.4938 -4.62021 -4.86553
345 1 83.5554 -4.27697 -5.0562
346 1 84.5641 -3.77231 -5.17402
347 1 85.6958 -3.61531 -4.89152
348 1 86.5621 -3.0993 -4.76517
349 1 87.542 -2.4417 -4.83742
350 1 88.4212 -1.72714 -5.22258
351 1 89.3152 -1.3424 -5.62833
352 1 90.2652 -1.09572 -5.9093
353 1 91.2397 -0.692602 -6.16873
354 1 92.4058 -0.462368 -5.87406
355 1 93.4476 -0.57601 -5.82469
356 1 94.5698 -0.670207 -5.76448
357 1 95.673 -0.757729 -5.80606
358 1 96.6027 -0.852343 -5.69456
359 1 97.7396 -0.980308 -5.6704
360 1 98.706 -1.11935 -5.48528
361 1 99.557 -0.949345 -5.17212
362 1 100.429 -0.456254 -4.88258
363 1 101.515 -0.201575 -4.71998
364 1 102.56 -0.18382 -4.32783
365 1 103.452 -0.0905059 -3.79655
366 1 104.586 0.0411234 -3.91714
367 1 105.677 0.209332 -3.71951
368 1 106.808 0.0525681 -3.72688
369 1 107.864 -0.536752 -3.80383
370 1 108.76 -1.02682 -4.17587
371 1 109.723 -1.15227 -4.16946
372 1 110.764 -1.19702 -4.18831
373 1 111.923 -1.38849 -4.20784
374 1 112.891 -1.34403 -3.88914
375 1 113.805 -0.995561 -3.07173
376 1 114.604 -0.621095 -2.46152
377 1 115.516 -0.0296618 -2.11241
378 1 116.573 0.241371 -1.90449
379 1 117.759 0.221768 -1.68828
380 1 118.674 0.496296 -1.15381
381 1 119.705 0.461977 -0.617351
382 1 120.565 0.359658 -0.0147234
383 1 121.684 0.498489 0.148301
384 1 122.861 0.330026 0.0898475
385 1 123.806 0.23983 -0.368532
386 1 124.826 0.000164256 -0.85011
387 1 125.665 -0.45055 -1.39492
388 1 126.75 -0.655062 -1.79332
389 1 127.688 -1.00425 -1.99454
390 1 128.734 -1.3674 -2.31025
391 1 129.748 -1.55339 -2.0491
392 1 130.914 -1.50939 -1.68425
393 1 131.741 -1.44603 -1.00755
394 1 132.503 -1.31792 -0.30772
395 1 133.602 -1.42967 -0.0495303
396 1 134.585 -1.57962 0.0264308
397 1 135.693 -1.8162 0.283492
398 1 136.738 -1.98931 0.533131
399 1 137.872 -1.94183 0.398905
400 1 138.901 -2.29344 0.421886
401 1 139.821 -2.83065 0.660599
402 1 140.881 -3.45134 0.676052
403 1 141.948 -3.60238 0.955096
404 1 142.981 -3.75612 0.931476
405 1 143.935 -4.2366 0.601206
406 1 144.986 -4.70414 0.414501
407 1 146.029 -5.09087 0.4605
408 1 147.107 -5.43399 0.360511
409 1 148.073 -5.39878 -0.123358
410 1 149.042 -5.39203 -0.401745
411 1 150.049 -4.9054 -0.480061
412 1 150.953 -4.35319 -0.147757
413 1 151.856 -3.92972 0.071106
414 1 152.835 -3.59516 -0.0918585
415 1 153.873 -3.64666 -0.548226
416 1 154.741 -3.40347 -1.1645
417 1 155.471 -2.80477 -1.70742
418 1 156.069 -2.11933 -2.3733
419 1 156.875 -1.75216 -3.00223
420 1 157.821 -1.47446 -3.53694
421 1 158.834 -1.0102 -3.62482
422 1 159.629 -0.389023 -4.04469
423 1 160.244 0.30272 -4.67596
424 1 160.741 1.17828 -5.03861
425 1 161.205 1.97517 -5.54955
426 1 161.853 2.8658 -6.01703
427 1 162.532 3.83561 -6.12926
428 1 163.134 4.74724 -6.23743
429 1 163.737 5.47523 -6.33126
430 1 164.79 5.97201 -6.25284
431 1 165.739 6.07485 -5.68927
432 1 166.54 6.3984 -5.42077
433 1 167.621 6.60299 -4.99138
434 1 168.709 6.70383 -4.50514
435 1 169.646 6.90298 -3.7541
436 1 170.543 6.63046 -3.18433
437 1 171.468 6.26055 -2.59855
438 1 172.411 5.59396 -2.32684
439 1 173.195 5.07922 -2.01483
440 1 173.927 4.57386 -1.71807
441 1 174.674 3.81761 -1.38176
442 1 175.425 3.20996 -0.737098
443 1 176.235 2.77649 -0.39988
444 1 177.218 2.07814 -0.281511
445 1 178.132 1.53988 -0.568903
446 1 178.986 0.784026 -1.05075
447 1 179.844 0.311187 -1.73914
448 1 180.772 0.0892885 -2.10489
449 1 181.917 -0.173222 -2.19754
450 1 182.937 -0.254871 -2.34232
451 1 183.934 -0.204273 -2.67877
452 1 184.871 0.317892 -2.76877
453 1 185.745 1.04097 -2.75808
454 1 186.596 1.60463 -2.70987
455 1 187.564 1.93395 -2.73758
456 1 188.634 2.39142 -2.55834
457 1 189.679 2.82395 -2.29727
458 1 190.782 2.69413 -2.49783
459 1 191.83 3.20303 -2.68403
460 1 192.894 3.48148 -3.0066
461 1 193.822 3.63573 -3.65091
462 1 194.661 3.37898 -4.16568
463 1 195.806 3.32054 -4.48507
464 1 196.902 3.15447 -4.75935
465 1 197.864 3.11911 -5.34473
466 1 198.64 3.59761 -6.0627
467 1 199.615 4.02451 -6.1784
468 1 200.716 4.11358 -6.26259
469 1 201.886 4.21764 -6.51152
470 1 202.976 4.15259 -6.62409
471 1 203.98 4.33453 -6.76078
472 1 204.858 4.25679 -6.15001
473 1 205.886 4.48819 -5.31651
474 1 206.769 4.68422 -4.64731
475 1 207.763 4.52593 -4.02125
476 1 208.649 4.01269 -3.75393
477 1 209.797 3.764 -3.67232
478 1 210.797 3.25077 -3.62899
479 1 211.655 2.81917 -3.16483
480 1 212.636 2.64013 -2.83489
481 1 213.732 2.49251 -2.71723
482 1 214.803 2.20004 -2.74456
483 1 215.99 2.10544 -2.53987
484 1 217.107 1.83332 -2.32279
485 1 218.24 1.59118 -2.00856
486 1 219.244 1.22127 -1.7888
487 1 220.187 0.775436 -1.39901
488 1 221.213 0.544016 -1.58054
489 1 222.166 0.489869 -1.1313
490 1 223.172 0.141385 -0.76047
491 1 224.145 -0.199431 -0.488977
492 1 225.208 -0.662788 -0.556285
493 1 226.162 -0.315789 -0.97951
494 1 227.125 0.246494 -1.25107
495 1 228.147 0.729598 -1.68788
496 1 228.842 0.690466 -2.64452
497 1 229.778 0.599221 -3.26556
498 1 230.81 0.899898 -3.49932
499 1 231.757 1.44124 -3.54839
500 1 232.8 1.55334 -3.05844
501 1 233.611 1.72205 -2.54601
502 1 234.579 1.99385 -2.00802
503 1 235.201 2.11224 -1.11741
504 1 235.725 2.48318 -0.193576
505 1 236.37 2.79296 0.673152
506 1 236.964 3.09103 1.41977
507 1 237.558 3.16962 2.28961
508 1 237.988 3.41332 3.40465
509 1 237.765 3.84045 4.3265
510 1 237.562 4.49413 5.23329
511 1 237.625 5.13415 6.07486
512 1 237.088 5.64228 6.94214
ITEM: TIMESTEP
20000
ITEM: NUMBER OF ATOMS
512
ITEM: BOX BOUNDS mm mm mm
-2.5600000000000000e+02 2.5600000000000000e+02
-2.5600000000000000e+02 2.5600000000000000e+02
-2.5600000000000000e+02 2.5600000000000000e+02
ITEM: ATOMS id type x y z
1 1 -228.892 5.03601 -1.27295
2 1 -227.899 4.93897 -1.14271
3 1 -227.098 4.51117 -0.964663
4 1 -226.241 4.18277 -0.914617
5 1 -225.424 3.81692 -0.825835
6 1 -224.578 3.67881 -0.474264
7 1 -224.074 3.4716 0.250942
8 1 -223.282 3.1431 0.687547
9 1 -222.396 3.36281 1.01653
10 1 -221.503 3.44691 1.35689
11 1 -220.6 3.42321 1.67332
12 1 -219.702 3.01997 1.54696
13 1 -218.795 2.93248 1.2971
14 1 -217.81 2.89826 1.26528
15 1 -216.849 2.8124 1.21251
16 1 -215.921 2.68139 1.01774
17 1 -215.099 2.79557 0.662184
18 1 -214.258 3.17055 0.386692
19 1 -213.53 3.32922 -0.201499
20 1 -212.897 3.93166 -0.617202
21 1 -211.944 3.83816 -0.669939
22 1 -211.079 3.54273 -0.605093
23 1 -210.091 3.61334 -0.728704
24 1 -209.202 3.85281 -0.972067
25 1 -208.434 4.39462 -1.00218
26 1 -207.506 4.45563 -0.845755
27 1 -206.551 4.19471 -0.799635
28 1 -205.68 3.96394 -0.773852
29 1 -204.76 3.89711 -0.658552
30 1 -203.814 3.97164 -0.645341
31 1 -202.899 3.83311 -0.497486
32 1 -201.964 3.77121 -0.688336
33 1 -201.069 3.61255 -0.92643
34 1 -200.132 3.45044 -1.01155
35 1 -199.257 3.12786 -1.34041
36 1 -198.43 2.74322 -1.38613
37 1 -197.539 2.47412 -1.56085
38 1 -196.645 2.13428 -1.5634
39 1 -195.751 1.90371 -1.51649
40 1 -194.862 1.70226 -1.50746
41 1 -194.02 1.6544 -1.84019
42 1 -193.118 1.65699 -1.76084
43 1 -192.279 1.67727 -1.43605
44 1 -191.478 1.32162 -1.07862
45 1 -190.712 0.773187 -0.953076
46 1 -189.905 0.213738 -1.09992
47 1 -189.023 0.0349827 -1.1839
48 1 -188.108 -0.0728152 -1.51825
49 1 -187.167 -0.135887 -1.75855
50 1 -186.294 -0.423891 -1.67857
51 1 -185.377 -0.324014 -1.48259
52 1 -184.53 -0.149571 -1.01375
53 1 -183.582 0.0346 -0.870223
54 1 -182.735 0.313413 -0.686532
55 1 -181.832 0.645047 -0.663294
56 1 -180.9 0.950426 -0.73422
57 1 -180.003 1.06226 -0.822506
58 1 -179.112 0.802613 -1.17813
59 1 -178.277 0.482433 -1.33187
60 1 -177.36 0.436557 -1.14925
61 1 -176.778 0.0538467 -0.482772
62 1 -176.006 -0.403604 -0.143319
63 1 -175.142 -0.691178 -0.187209
64 1 -174.275 -0.840402 0.255945
65 1 -173.362 -0.827935 0.483351
66 1 -172.519 -0.612985 0.848424
67 1 -171.736 -0.42251 1.36628
68 1 -170.839 -0.0973903 1.3918
69 1 -169.926 0.0850422 1.26515
70 1 -169.007 0.0956639 1.1907
71 1 -168.075 0.0239347 1.17984
72 1 -167.116 -0.0162048 0.983737
73 1 -166.218 -0.224051 0.834603
74 1 -165.215 -0.186323 0.911398
75 1 -164.267 -0.339189 0.950784
76 1 -163.316 -0.415015 0.861826
77 1 -162.362 -0.312982 0.715068
78 1 -161.455 0.0272288 0.541364
79 1 -160.59 0.0925965 0.253545
80 1 -159.804 0.435395 -0.103366
81 1 -158.991 0.64023 -0.66256
82 1 -158.071 0.60315 -0.869749
83 1 -157.222 0.256742 -0.794263
84 1 -156.278 0.333727 -0.719767
85 1 -155.371 0.418108 -0.830077
86 1 -154.414 0.350152 -0.77194
87 1 -153.546 0.173376 -0.439051
88 1 -152.66 0.0415705 -0.0243996
89 1 -151.85 0.304474 0.398232
90 1 -150.996 0.459652 0.756317
91 1 -149.992 0.37637 1.11003
92 1 -149.111 0.591946 1.24664
93 1 -148.165 0.576171 1.12299
94 1 -147.256 0.590204 1.21336
95 1 -146.391 0.758524 0.979932
96 1 -145.57 1.03898 1.21145
97 1 -144.694 1.38439 1.38876
98 1 -143.848 1.72672 1.48796
99 1 -142.982 2.00825 1.18565
100 1 -142.02 2.10315 0.952383
101 1 -141.02 2.16171 0.972726
102 1 -140.079 2.35453 0.977057
103 1 -139.088 2.43434 0.757031
104 1 -138.23 2.64547 0.414022
105 1 -137.286 2.609 0.357646
106 1 -136.333 2.68989 0.336964
107 1 -135.41 2.79793 0.258525
108 1 -134.5 2.93698 0.311521
109 1 -133.593 3.16474 0.299902
110 1 -132.698 3.3873 0.603381
111 1 -131.865 3.67291 0.956887
112 1 -130.934 3.88555 1.02952
113 1 -129.998 3.65946 1.27184
114 1 -129.176 3.37902 1.72642
115 1 -128.526 2.89387 2.25174
116 1 -127.715 2.52662 2.48328
117 1 -126.743 2.40695 2.63329
118 1 -125.831 2.44889 2.43102
119 1 -124.924 2.39681 2.08577
120 1 -123.989 2.38433 1.9364
121 1 -123.11 2.54698 1.75491
122 1 -122.186 2.29006 1.55997
123 1 -121.234 2.25859 1.49152
124 1 -120.293 2.26917 1.69276
125 1 -119.42 2.43188 1.88952
126 1 -118.55 2.40018 1.65897
127 1 -117.62 2.28855 1.62769
128 1 -116.683 2.25137 1.74523
129 1 -115.755 2.10438 1.63249
130 1 -114.845 2.20611 1.44226
131 1 -113.88 2.04357 1.43452
132 1 -112.929 2.21862 1.58578
133 1 -112.128 2.70606 1.47649
134 1 -111.245 3.02108 1.24042
135 1 -110.361 2.8307 1.04204
136 1 -109.451 2.55524 1.02158
137 1 -108.526 2.287 1.0688
138 1 -107.621 1.99992 0.876788
139 1 -106.726 2.00902 0.844228
140 1 -105.748 1.83966 0.946782
141 1 -104.815 1.72147 1.00949
142 1 -103.891 1.46488 1.08438
143 1 -103.023 1.73141 0.79581
144 1 -102.137 1.70395 0.484148
145 1 -101.219 1.6328 0.400871
146 1 -100.351 1.58484 0.152222
147 1 -99.4454 1.47764 0.286672
148 1 -98.5377 1.46391 0.594243
149 1 -97.6016 1.40699 0.710641
150 1 -96.7055 1.66406 0.676018
151 1 -95.8443 1.96239 0.567736
152 1 -94.9455 2.23225 0.319335