ITEM: TIMESTEP
2110000
ITEM: NUMBER OF ATOMS
512
ITEM: BOX BOUNDS mm mm mm
-2.5600000000000000e+02 2.5600000000000000e+02
-2.5600000000000000e+02 2.5600000000000000e+02
-2.5600000000000000e+02 2.5600000000000000e+02
ITEM: ATOMS id type x y z
1 1 -89.1916 -20.6712 -6.19934
2 1 -89.0315 -19.8944 -6.62392
3 1 -88.8357 -19.0945 -7.07817
4 1 -88.5139 -18.3679 -7.54895
5 1 -87.9878 -17.7825 -8.01503
6 1 -87.3533 -17.346 -8.55967
7 1 -86.6394 -16.9054 -9.02236
8 1 -85.9524 -16.523 -9.50883
9 1 -85.3573 -16.135 -10.162
10 1 -84.8156 -15.7566 -10.8215
11 1 -84.3394 -15.347 -11.4624
12 1 -83.798 -14.8795 -12.2419
13 1 -83.2845 -14.46 -12.9002
14 1 -82.6803 -14.093 -13.5012
15 1 -82.097 -13.7208 -14.1038
16 1 -81.4978 -13.4283 -14.7926
17 1 -80.7823 -13.0422 -15.3808
18 1 -80.2034 -12.6369 -15.9736
19 1 -79.5177 -12.234 -16.4548
20 1 -78.9067 -11.8537 -17.0261
21 1 -78.2484 -11.4334 -17.547
22 1 -77.6893 -11.1701 -18.2242
23 1 -77.1587 -10.8952 -18.9287
24 1 -76.6272 -10.5516 -19.6758
25 1 -76.1226 -10.163 -20.3163
26 1 -75.5963 -9.63637 -20.9149
27 1 -75.182 -9.08028 -21.5165
28 1 -74.7942 -8.43149 -22.0663
29 1 -74.3419 -7.80758 -22.5689
30 1 -74.0384 -7.08274 -23.0409
31 1 -73.7166 -6.27779 -23.3843
32 1 -73.476 -5.40595 -23.7172
33 1 -73.2841 -4.45856 -23.9955
34 1 -73.139 -3.59804 -24.2272
35 1 -73.0666 -2.69346 -24.4369
36 1 -73.2284 -1.78282 -24.5114
37 1 -73.3088 -0.867865 -24.6235
38 1 -73.2614 0.101903 -24.7121
39 1 -73.34 1.04869 -24.6955
40 1 -73.5726 1.89412 -24.4284
41 1 -73.7806 2.79812 -24.0807
42 1 -73.9299 3.66488 -23.7761
43 1 -74.361 4.44094 -23.4311
44 1 -74.7992 5.24907 -23.154
45 1 -75.1481 6.09331 -23.0093
46 1 -75.6152 6.9397 -22.8241
47 1 -76.0252 7.68265 -22.4174
48 1 -76.5754 8.30949 -21.9912
49 1 -77.1625 8.96037 -21.7485
50 1 -77.6782 9.71386 -21.4292
51 1 -78.3747 10.3493 -21.1482
52 1 -78.7762 11.0462 -20.8118
53 1 -79.2899 11.7238 -20.5114
54 1 -79.7992 12.4456 -20.1893
55 1 -80.3509 13.2048 -19.9232
56 1 -80.9148 13.9197 -19.692
57 1 -81.3127 14.8005 -19.4058
58 1 -81.7114 15.5941 -19.0759
59 1 -82.1048 16.3203 -18.5937
60 1 -82.4967 17.1918 -18.3159
61 1 -82.5273 18.1085 -18.0125
62 1 -82.5727 18.9461 -17.672
63 1 -82.8502 19.7866 -17.3866
64 1 -83.0966 20.6076 -17.0251
65 1 -83.2574 21.345 -16.5482
66 1 -83.2545 22.1176 -15.9331
67 1 -83.1435 22.7238 -15.1952
68 1 -83.0325 23.1616 -14.3852
69 1 -82.9179 23.5034 -13.4959
70 1 -82.7363 23.8291 -12.6101
71 1 -82.4669 24.1883 -11.7963
72 1 -82.0821 24.4485 -10.9695
73 1 -81.7017 24.7828 -10.1725
74 1 -81.3603 25.0744 -9.35551
75 1 -80.8712 25.3593 -8.63278
76 1 -80.2764 25.6867 -7.99792
77 1 -79.6939 25.9884 -7.2335
78 1 -79.0843 26.1467 -6.5866
79 1 -78.3618 26.4136 -6.02807
80 1 -77.6234 26.5906 -5.37604
81 1 -76.8897 26.8712 -4.95778
82 1 -76.0566 26.9783 -4.55678
83 1 -75.2331 27.0517 -4.00429
84 1 -74.4313 27.0953 -3.63244
85 1 -73.552 27.4367 -3.29171
86 1 -72.8059 27.8523 -2.96638
87 1 -72.0148 28.1333 -2.39874
88 1 -71.215 28.405 -2.04136
89 1 -70.4342 28.6979 -1.59842
90 1 -69.5895 28.952 -1.16068
91 1 -68.7375 29.1178 -0.718071
92 1 -67.8547 29.3082 -0.370082
93 1 -67.0375 29.4381 0.0957158
94 1 -66.3661 29.6789 0.713815
95 1 -65.6381 29.942 1.20424
96 1 -64.8809 30.1419 1.72982
97 1 -64.0024 30.1167 2.16574
98 1 -63.2446 29.7876 2.59664
99 1 -62.6592 29.2009 3.15013
100 1 -61.9866 28.6295 3.50876
101 1 -61.1589 28.1583 3.83699
102 1 -60.3663 27.8254 4.08029
103 1 -59.525 27.402 4.29569
104 1 -58.733 26.8861 4.39987
105 1 -57.9179 26.422 4.66732
106 1 -57.1602 25.8884 4.85812
107 1 -56.5052 25.2617 5.12426
108 1 -55.7687 24.7457 5.47466
109 1 -55.1334 24.223 5.90114
110 1 -54.4207 23.8044 6.28416
111 1 -53.6748 23.2772 6.52185
112 1 -52.943 22.6794 6.76212
113 1 -52.2531 22.0453 6.82425
114 1 -51.5724 21.4094 6.99344
115 1 -50.8561 20.8251 7.19175
116 1 -50.3216 20.1262 7.49543
117 1 -49.7861 19.3303 7.55003
118 1 -49.3929 18.4336 7.38219
119 1 -48.9513 17.6705 7.17178
120 1 -48.6066 16.9216 6.86715
121 1 -48.1797 16.1828 6.52101
122 1 -47.8834 15.3675 6.18941
123 1 -47.4726 14.5759 5.84023
124 1 -47.0908 13.8898 5.32564
125 1 -46.7348 13.1438 4.93846
126 1 -46.2355 12.4446 4.51893
127 1 -45.6827 11.6998 4.39417
128 1 -45.0986 11.0447 4.13899
129 1 -44.5594 10.2652 3.98101
130 1 -43.8491 9.67518 3.88049
131 1 -43.1036 9.12303 3.91551
132 1 -42.3404 8.55346 3.99129
133 1 -41.6549 7.94574 3.99651
134 1 -40.9715 7.30483 4.01354
135 1 -40.1976 6.77681 4.05257
136 1 -39.3646 6.35111 3.78542
137 1 -38.5537 6.01475 3.517
138 1 -37.7454 5.80274 3.12047
139 1 -36.7924 5.6634 2.8051
140 1 -35.886 5.5155 2.67069
141 1 -34.9193 5.40934 2.56566
142 1 -33.9462 5.35993 2.57101
143 1 -33.0178 5.35658 2.55276
144 1 -32.1105 5.2916 2.52515
145 1 -31.1378 5.44079 2.42177
146 1 -30.2268 5.66742 2.30204
147 1 -29.3325 6.00341 2.23327
148 1 -28.555 6.4674 2.3136
149 1 -27.7737 6.94519 2.55703
150 1 -27.0054 7.47507 2.81042
151 1 -26.2215 7.9357 2.95667
152 1 -25.3495 8.48244 3.10891
153 1 -24.6252 8.97183 3.40682
154 1 -23.9976 9.66109 3.57243
155 1 -23.5101 10.4685 3.794
156 1 -23.0305 11.2472 3.9735
157 1 -22.5844 12.0547 4.24098
158 1 -22.3563 12.8876 4.54765
159 1 -22.0281 13.7034 4.83863
160 1 -21.6826 14.5164 5.08792
161 1 -21.5233 15.4484 5.32308
162 1 -21.2247 16.3249 5.52534
163 1 -21.0232 17.1169 5.84632
164 1 -20.5877 17.8847 6.16321
165 1 -20.0656 18.5824 6.56311
166 1 -19.4409 19.3372 6.83127
167 1 -18.8236 19.9927 7.18991
168 1 -18.2535 20.6425 7.61402
169 1 -17.5913 21.2261 7.98774
170 1 -16.7949 21.7503 8.42149
171 1 -16.1477 22.1777 9.03013
172 1 -15.5497 22.5938 9.64604
173 1 -14.8922 22.9237 10.2613
174 1 -14.3651 23.4227 10.8631
175 1 -13.7884 23.8493 11.4651
176 1 -13.129 24.2681 12.0062
177 1 -12.3641 24.5046 12.5114
178 1 -11.501 24.701 12.7351
179 1 -10.5515 24.7225 12.8585
180 1 -9.60572 24.6829 13.0077
181 1 -8.81558 24.3868 13.3885
182 1 -7.98355 23.955 13.7212
183 1 -7.22239 23.5855 14.1328
184 1 -6.44602 23.2175 14.5146
185 1 -5.84373 22.6449 14.9551
186 1 -5.28549 21.9216 15.3479
187 1 -4.77535 21.2327 15.6801
188 1 -4.20873 20.5253 15.8381
189 1 -3.64337 19.7914 15.9977
190 1 -3.08294 19.057 16.1352
191 1 -2.63169 18.2807 16.3054
192 1 -2.33638 17.3578 16.5222
193 1 -2.24078 16.4327 16.604
194 1 -2.04239 15.4885 16.5153
195 1 -1.68345 14.5922 16.3839
196 1 -1.25856 13.7528 16.3174
197 1 -1.08593 12.7988 16.2022
198 1 -1.04298 11.8792 16.0653
199 1 -0.947622 10.9789 15.8298
200 1 -0.867347 10.0915 15.637
201 1 -0.84145 9.16229 15.4872
202 1 -0.867316 8.28341 15.2438
203 1 -0.978487 7.43103 15.0172
204 1 -1.03795 6.55881 14.7059
205 1 -1.16639 5.75075 14.2607
206 1 -1.37816 5.08126 13.6118
207 1 -1.62556 4.42709 13.0169
208 1 -1.89869 3.95064 12.2923
209 1 -2.15158 3.33901 11.5517
210 1 -2.53875 2.86727 10.8941
211 1 -2.94513 2.38229 10.1395
212 1 -3.41494 1.81759 9.5627
213 1 -3.85311 1.15553 8.98231
214 1 -4.43184 0.500845 8.52149
215 1 -5.12553 -0.00324098 8.06178
216 1 -5.81644 -0.501699 7.6559
217 1 -6.53951 -0.922617 7.00698
218 1 -7.16632 -1.08606 6.33095
219 1 -7.71548 -1.29754 5.55454
220 1 -8.1727 -1.56148 4.69864
221 1 -8.42874 -1.91919 3.85306
222 1 -8.70928 -2.2226 3.01669
223 1 -9.05329 -2.41298 2.14137
224 1 -9.43984 -2.37587 1.31722
225 1 -9.78702 -2.17257 0.463172
226 1 -9.80118 -1.87358 -0.424196
227 1 -9.79884 -1.5916 -1.39582
228 1 -9.84185 -1.38979 -2.28997
229 1 -9.77385 -1.05782 -3.18426
230 1 -9.55209 -0.504944 -3.98655
231 1 -9.09332 -0.0667924 -4.71089
232 1 -8.60345 0.428732 -5.32527
233 1 -8.26058 1.17384 -5.78212
234 1 -7.9095 1.98804 -6.11162
235 1 -7.33684 2.7119 -6.23807
236 1 -6.86883 3.53115 -6.2386
237 1 -6.36902 4.35401 -6.33722
238 1 -5.91407 5.15835 -6.31405
239 1 -5.40907 5.97197 -6.36973
240 1 -4.91086 6.73876 -6.24511
241 1 -4.29146 7.40073 -6.08107
242 1 -3.5298 7.94729 -5.9964
243 1 -2.7313 8.43211 -5.74678
244 1 -1.89326 8.86504 -5.56362
245 1 -1.0924 9.35078 -5.26437
246 1 -0.269571 9.77239 -4.9437
247 1 0.60902 10.0328 -4.63015
248 1 1.50893 10.2175 -4.34626
249 1 2.26307 10.4319 -3.90689
250 1 3.08394 10.5487 -3.43108
251 1 3.92241 10.4638 -3.0289
252 1 4.78898 10.3219 -2.67524
253 1 5.65555 10.0265 -2.41221
254 1 6.46628 9.5684 -2.177
255 1 7.24226 9.14012 -1.80543
256 1 8.14844 8.76919 -1.5135
257 1 8.97822 8.42412 -1.13848
258 1 9.83654 7.97383 -0.898362
259 1 10.7105 7.75352 -0.59632
260 1 11.5147 7.40174 -0.131487
261 1 12.1918 6.78044 0.123515
262 1 12.806 6.06171 0.176912
263 1 13.2293 5.26598 0.312863
264 1 13.5219 4.38354 0.481886
265 1 13.7539 3.54047 0.590354
266 1 13.9555 2.72062 1.01472
267 1 14.0106 1.83615 1.27197
268 1 14.1206 0.935006 1.66732
269 1 14.114 0.18438 2.26706
270 1 13.9981 -0.57885 2.73343
271 1 13.9591 -1.50005 3.0558
272 1 13.9536 -2.44066 3.18664
273 1 14.1144 -3.31111 3.42012
274 1 14.209 -4.28056 3.58168
275 1 14.3827 -5.23176 3.76729
276 1 14.672 -6.17386 3.89484
277 1 14.7651 -7.07897 3.86282
278 1 14.8042 -7.98226 3.75549
279 1 14.9761 -8.93573 3.65359
280 1 15.0661 -9.84135 3.60456
281 1 15.3674 -10.7146 3.32399
282 1 15.6491 -11.6125 3.12194
283 1 16.0146 -12.3769 2.76097
284 1 16.5906 -13.018 2.41672
285 1 17.2836 -13.545 2.1226
286 1 18.0427 -13.925 1.87705
287 1 18.7553 -14.44 1.47752
288 1 19.4249 -14.8028 0.949261
289 1 20.0784 -15.0463 0.315176
290 1 20.6686 -15.39 -0.38244
291 1 21.2919 -15.5451 -1.05249
292 1 21.8832 -15.4312 -1.7359
293 1 22.3903 -15.2424 -2.52068
294 1 22.8593 -14.9478 -3.30176
295 1 23.2516 -14.5589 -4.08665
296 1 23.6074 -14.237 -4.87399
297 1 23.9118 -13.7455 -5.61013
298 1 24.3526 -13.3153 -6.34288
299 1 24.9396 -12.8599 -6.90884
300 1 25.5593 -12.3349 -7.51695
301 1 26.1666 -11.6656 -7.90119
302 1 26.6785 -10.9536 -8.30366
303 1 27.2529 -10.2429 -8.58195
304 1 27.968 -9.58562 -8.66854
305 1 28.6891 -8.97573 -8.82572
306 1 29.3102 -8.41104 -9.22258
307 1 30.0181 -7.82561 -9.45662
308 1 30.701 -7.22941 -9.71942
309 1 31.2171 -6.42166 -9.77976
310 1 31.6132 -5.56927 -9.92407
311 1 31.9497 -4.73268 -9.9395
312 1 32.2691 -3.88211 -9.99148
313 1 32.6757 -2.98304 -10.0269
314 1 33.1172 -2.15966 -10.0082
315 1 33.4579 -1.29971 -9.99484
316 1 33.8996 -0.492056 -10.0318
317 1 34.5244 0.257726 -9.9532
318 1 35.0862 0.814457 -9.51464
319 1 35.7366 1.25144 -8.90864
320 1 36.2018 1.6176 -8.19484
321 1 36.6801 2.17903 -7.55165
322 1 37.1292 2.65673 -6.90808
323 1 37.6647 3.07802 -6.22486
324 1 38.2397 3.44687 -5.55413
325 1 38.9763 3.67932 -5.00666
326 1 39.6359 3.7521 -4.38254
327 1 40.4312 3.94364 -3.9481
328 1 41.0059 4.19776 -3.25328
329 1 41.585 4.54464 -2.52654
330 1 42.2408 4.77803 -1.8363
331 1 42.8357 5.05154 -1.18683
332 1 43.487 5.05002 -0.507217
333 1 44.2426 5.00496 0.0775968
334 1 44.9471 4.90957 0.75088
335 1 45.5846 4.70799 1.42313
336 1 46.2585 4.43546 2.02115
337 1 46.9783 4.14826 2.5391
338 1 47.6373 3.79143 3.07441
339 1 48.1649 3.40114 3.77317
340 1 48.6513 2.97197 4.44755
341 1 49.153 2.68212 5.17104
342 1 49.7304 2.2706 5.79744
343 1 50.3292 2.0301 6.48527
344 1 50.9756 1.63046 7.06805
345 1 51.7138 1.32934 7.59303
346 1 52.5605 1.12535 7.98297
347 1 53.4532 1.1049 8.28377
348 1 54.3124 1.07482 8.52565
349 1 55.2164 1.04461 8.83557
350 1 56.0892 1.04133 9.12576
351 1 56.9652 1.07391 9.36141
352 1 57.9061 0.966224 9.58915
353 1 58.7898 1.16932 9.61207
354 1 59.6302 1.59741 9.75492
355 1 60.488 1.99271 9.78083
356 1 61.3965 2.3807 9.7911
357 1 62.204 2.88618 9.76505
358 1 62.9456 3.45042 9.71708
359 1 63.5592 4.21283 9.6043
360 1 64.1202 4.85688 9.26199
361 1 64.6949 5.48204 8.88195
362 1 65.1858 6.01786 8.3269
363 1 65.5572 6.65691 7.79159
364 1 65.8389 7.5104 7.4424
365 1 65.9995 8.4223 7.19669
366 1 65.9126 9.27345 6.79632
367 1 65.9018 9.93921 6.14988
368 1 65.8422 10.7591 5.56033
369 1 65.6831 11.501 4.9984
370 1 65.5576 12.1272 4.32732
371 1 65.3348 12.7309 3.59942
372 1 65.1071 13.3285 2.95352
373 1 64.8607 13.975 2.34798
374 1 64.4232 14.5921 1.84153
375 1 63.8352 15.0815 1.29803
376 1 63.3785 15.3222 0.530254
377 1 62.9921 15.4012 -0.310095
378 1 62.5847 15.3437 -1.16053
379 1 62.1049 15.4107 -1.97565
380 1 61.6582 15.3513 -2.80209
381 1 61.3465 15.3542 -3.75492
382 1 60.9437 15.2914 -4.62399
383 1 60.7515 15.202 -5.49307
384 1 60.5906 14.8202 -6.30502
385 1 60.2692 14.4352 -7.14903
386 1 59.9145 14.0199 -7.9087
387 1 59.4387 13.5178 -8.50878
388 1 58.9669 13.0835 -9.20724
389 1 58.4665 12.8618 -9.89977
390 1 57.9744 12.7532 -10.704
391 1 57.5127 12.7277 -11.5278
392 1 56.9853 12.8052 -12.3451
393 1 56.473 12.9314 -13.1757
394 1 55.9848 13.1778 -14.0227
395 1 55.487 13.4812 -14.7137
396 1 55.0325 13.7716 -15.4212
397 1 54.4037 14.2422 -15.9198
398 1 53.8412 14.8681 -16.3573
399 1 53.2034 15.5814 -16.6095
400 1 52.674 16.3983 -16.6304
401 1 52.0044 17.0446 -16.5383
402 1 51.4745 17.8464 -16.469
403 1 51.0877 18.7056 -16.3092
404 1 50.8206 19.6132 -16.1302
405 1 50.5584 20.4625 -15.799
406 1 50.4248 21.3265 -15.3852
407 1 50.3594 22.1852 -15.0474
408 1 50.649 23.0337 -14.6596
409 1 50.9002 23.8201 -14.1518
410 1 51.0959 24.6854 -13.7787
411 1 51.1549 25.5841 -13.5292
412 1 51.3439 26.4324 -13.1712
413 1 51.6844 27.225 -12.9016
414 1 52.198 28.0036 -12.6733
415 1 52.7675 28.703 -12.4278
416 1 53.3219 29.2112 -11.9237
417 1 54.0191 29.5528 -11.4211
418 1 54.8454 29.9664 -11.1468
419 1 55.7624 30.2946 -10.8654
420 1 56.6609 30.4921 -10.6339
421 1 57.5135 30.7487 -10.4285
422 1 58.4142 31.0292 -10.2946
423 1 59.3503 31.1695 -10.2068
424 1 60.3198 31.0272 -10.0218
425 1 61.1526 30.5914 -9.90639
426 1 62.0249 30.2164 -9.78081
427 1 62.9162 29.7656 -9.61847
428 1 63.7261 29.4113 -9.35366
429 1 64.5577 28.9891 -9.30378
430 1 65.4652 28.6065 -9.17931
431 1 66.4039 28.4805 -9.12248
432 1 67.3058 28.4967 -9.19772
433 1 68.2171 28.6073 -9.26029
434 1 69.1185 28.7996 -9.2762
435 1 70.0713 28.8089 -9.12247
436 1 71.0488 28.666 -9.00958
437 1 72.0272 28.5193 -9.00774
438 1 72.9685 28.4377 -9.26358
439 1 73.883 28.3156 -9.47442
440 1 74.8045 28.1422 -9.76297
441 1 75.6681 27.9565 -9.95416
442 1 76.5598 27.5536 -10.069
443 1 77.4481 27.3111 -10.2836
444 1 78.3468 27.0933 -10.5742
445 1 79.2524 26.944 -10.7945
446 1 80.1133 26.7435 -11.22
447 1 81.0021 26.5713 -11.6218
448 1 81.7715 26.4238 -12.1008
449 1 82.6332 26.2601 -12.4585
450 1 83.4561 26.0211 -12.811
451 1 84.3616 26.0615 -12.9766
452 1 85.2608 26.2641 -13.24
453 1 86.2121 26.3604 -13.5543
454 1 87.1185 26.6355 -13.7939
455 1 87.9749 26.8294 -14.0642
456 1 88.789 27.1404 -14.3198
457 1 89.6693 27.3492 -14.505
458 1 90.5911 27.5532 -14.495
459 1 91.4647 27.7147 -14.6951
460 1 92.3441 27.8274 -14.7524
461 1 93.3135 27.6896 -14.9975
462 1 94.1627 27.532 -15.4252
463 1 94.9465 27.5905 -15.9305
464 1 95.8099 27.6116 -16.4333
465 1 96.5681 27.5619 -17.0096
466 1 97.2918 27.4469 -17.6357
467 1 97.9314 27.5871 -18.2601
468 1 98.3156 27.8709 -19.0556
469 1 98.6842 28.1238 -19.7987
470 1 99.0728 28.1512 -20.6227
471 1 99.5466 28.1777 -21.4989
472 1 99.7259 28.0312 -22.3818
473 1 99.9766 27.8412 -23.2561
474 1 100.118 27.7179 -24.1446
475 1 100.101 27.5026 -25.0485
476 1 99.9735 27.3171 -25.9486
477 1 99.7659 26.9283 -26.8017
478 1 99.5329 26.3766 -27.5094
479 1 99.0755 25.8541 -28.1514
480 1 98.5773 25.3461 -28.85
481 1 98.2358 24.79 -29.5117
482 1 97.7729 24.2412 -30.1132
483 1 97.2627 23.6576 -30.6684
484 1 96.6977 23.0546 -31.1363
485 1 96.2593 22.4222 -31.5663
486 1 95.7241 21.7213 -31.9814
487 1 95.128 21.0394 -32.4142
488 1 94.342 20.5002 -32.7612
489 1 93.5931 20.0007 -32.9719
490 1 92.8092 19.5975 -33.2373
491 1 92.0632 19.1223 -33.5788
492 1 91.3054 18.6275 -34.0079
493 1 90.6201 18.2726 -34.5352
494 1 89.931 17.8907 -35.1193
495 1 89.2172 17.7485 -35.6948
496 1 88.3703 17.7779 -36.1672
497 1 87.4406 17.8975 -36.3739
498 1 86.4895 18.0488 -36.5324
499 1 85.5908 18.0814 -36.6903
500 1 84.722 17.7681 -36.7875
501 1 83.8838 17.3785 -36.9874
502 1 82.9301 17.1789 -37.2256
503 1 82.009 16.9363 -37.5211
504 1 81.1084 16.7091 -37.7318
505 1 80.2107 16.4952 -38.0304
506 1 79.286 16.4935 -38.0935
507 1 78.32 16.649 -38.1134
508 1 77.3607 16.7424 -38.0291
509 1 76.4554 16.6455 -37.9866
510 1 75.5635 16.4556 -38.0056
511 1 74.6297 16.3359 -38.0429
512 1 73.6985 16.4356 -38.0495
ITEM: TIMESTEP
2120000
ITEM: NUMBER OF ATOMS
512
ITEM: BOX BOUNDS mm mm mm
-2.5600000000000000e+02 2.5600000000000000e+02
-2.5600000000000000e+02 2.5600000000000000e+02
-2.5600000000000000e+02 2.5600000000000000e+02
ITEM: ATOMS id type x y z
1 1 -84.9157 -23.8454 -4.94021
2 1 -84.7392 -22.9894 -5.30687
3 1 -84.6739 -22.1426 -5.71862
4 1 -84.4509 -21.3756 -6.19066
5 1 -84.3383 -20.6754 -6.77888
6 1 -84.0487 -20.0397 -7.45181
7 1 -83.8115 -19.3503 -8.13175
8 1 -83.5037 -18.603 -8.53186
9 1 -83.1008 -17.7974 -8.81467
10 1 -82.5451 -17.0897 -9.0616
11 1 -81.8418 -16.4351 -9.17299
12 1 -81.0146 -16.0565 -9.40584
13 1 -80.2476 -15.6302 -9.72177
14 1 -79.5842 -15.0405 -10.0421
15 1 -78.9623 -14.5262 -10.4529
16 1 -78.3284 -14.1087 -11.0347
17 1 -77.6302 -13.6894 -11.5222
18 1 -76.9166 -13.2594 -12.1284
19 1 -76.2336 -12.7659 -12.5139
20 1 -75.7355 -12.0719 -12.9185
21 1 -75.1993 -11.4214 -13.3619
22 1 -74.6984 -10.9399 -13.9398
23 1 -74.3478 -10.441 -14.6534
24 1 -74.0797 -10.0037 -15.4257
25 1 -73.8104 -9.46121 -16.1472
26 1 -73.5367 -8.93182 -16.9231
27 1 -73.3229 -8.4309 -17.6708
28 1 -73.0588 -8.05781 -18.5292
29 1 -72.8898 -7.5906 -19.302
30 1 -72.6334 -7.07194 -20.1036
31 1 -72.5957 -6.48262 -20.8797
32 1 -72.5466 -5.98025 -21.7066
33 1 -72.5072 -5.37065 -22.4311
34 1 -72.2302 -4.76635 -23.1516
35 1 -72.0597 -4.01871 -23.6964
36 1 -72.0145 -3.12386 -24.0942
37 1 -72.0314 -2.30702 -24.573
38 1 -72.0558 -1.46607 -24.8691
39 1 -72.0081 -0.517109 -25.0456
40 1 -72.1058 0.38585 -25.1072
41 1 -72.2902 1.31783 -25.2201
42 1 -72.3456 2.23313 -25.3191
43 1 -72.4214 3.19351 -25.4141
44 1 -72.5901 4.08665 -25.4417
45 1 -72.6773 5.04821 -25.491
46 1 -72.8022 5.98284 -25.4963
47 1 -73.2169 6.82378 -25.4372
48 1 -73.7351 7.60992 -25.2823
49 1 -74.159 8.45681 -25.3016
50 1 -74.6401 9.23188 -25.3878
51 1 -75.1602 9.93639 -25.4149
52 1 -75.7986 10.5554 -25.2627
53 1 -76.386 11.2542 -25.1425
54 1 -76.9774 11.9475 -24.8324
55 1 -77.5539 12.5951 -24.4609
56 1 -77.9949 13.2751 -24.0534
57 1 -78.3859 14.0228 -23.5807
58 1 -78.6451 14.8338 -23.2925
59 1 -78.736 15.7538 -23.0499
60 1 -78.6944 16.6647 -22.8164
61 1 -78.6226 17.5292 -22.5702
62 1 -78.6854 18.4471 -22.2796
63 1 -78.8556 19.3259 -22.0187
64 1 -79.0396 20.1969 -21.6501
65 1 -79.1364 20.9554 -21.1732
66 1 -79.1163 21.8159 -20.7736
67 1 -79.13 22.6172 -20.2863
68 1 -79.018 23.2926 -19.5911
69 1 -79.2875 23.9652 -18.972
70 1 -79.4522 24.6709 -18.3638
71 1 -79.6071 25.1799 -17.5886
72 1 -79.7512 25.6384 -16.7098
73 1 -79.8497 26.1039 -15.8696
74 1 -79.9649 26.4012 -14.9718
75 1 -79.8999 26.6976 -14.0704
76 1 -79.5917 26.8718 -13.1426
77 1 -79.0474 26.9136 -12.308
78 1 -78.5859 26.9102 -11.4606
79 1 -78.0616 27.1398 -10.7005
80 1 -77.5933 27.5566 -10.035
81 1 -77.0516 28.0047 -9.37116
82 1 -76.3638 28.1633 -8.70229
83 1 -75.7107 28.3861 -8.01961
84 1 -75.097 28.5258 -7.38754
85 1 -74.3954 28.5618 -6.73449
86 1 -73.6814 28.8515 -6.20448
87 1 -72.879 29.1817 -5.7746
88 1 -72.0685 29.4129 -5.46088
89 1 -71.2428 29.7292 -5.11382
90 1 -70.3619 29.8161 -4.86741
91 1 -69.4482 29.9498 -4.72344
92 1 -68.5198 30.1904 -4.59587
93 1 -67.5359 30.2049 -4.69903
94 1 -66.5755 30.2957 -4.89716
95 1 -65.618 30.2748 -4.98075
96 1 -64.6507 30.192 -5.08713
97 1 -63.6695 30.1455 -5.00616
98 1 -62.7746 30.0405 -4.83319
99 1 -61.9137 29.7115 -4.45411
100 1 -61.1758 29.2782 -4.03908
101 1 -60.5302 28.6977 -3.71258
102 1 -59.8263 28.186 -3.37287
103 1 -59.0565 27.7931 -2.99598
104 1 -58.3152 27.2986 -2.81269
105 1 -57.6661 26.6546 -2.58052
106 1 -57.0981 26.0279 -2.26316
107 1 -56.4151 25.4401 -2.05349
108 1 -55.8457 24.7826 -1.7923
109 1 -55.301 24.0839 -1.48025
110 1 -54.7291 23.5837 -0.991317
111 1 -54.3354 23.1392 -0.253885
112 1 -53.9898 22.4807 0.404491
113 1 -53.6176 21.8025 0.95893
114 1 -53.248 21.0414 1.47821
115 1 -53.1108 20.3319 2.10554
116 1 -53.1342 19.5888 2.72989
117 1 -52.9904 18.7695 3.20547
118 1 -52.8817 17.9381 3.62417
119 1 -52.6862 16.9895 3.90381
120 1 -52.3292 16.0887 4.05097
121 1 -51.7796 15.3362 3.97335
122 1 -51.3427 14.5243 3.94235
123 1 -50.9551 13.6748 3.94266
124 1 -50.5461 12.9019 4.01833
125 1 -49.9445 12.1663 4.26458
126 1 -49.2411 11.5103 4.48163
127 1 -48.6016 10.7995 4.41146
128 1 -47.8158 10.2964 4.4073
129 1 -47.1267 9.68386 4.2388
130 1 -46.311 9.3677 3.97543
131 1 -45.505 8.95071 3.79872
132 1 -44.6552 8.47337 3.61187
133 1 -43.8645 8.15383 3.41742
134 1 -42.9843 7.89057 3.2417
135 1 -42.1147 7.64718 3.06356
136 1 -41.2249 7.38668 2.77229
137 1 -40.4507 7.04895 2.3605
138 1 -39.6903 6.71643 1.93167
139 1 -38.8415 6.50585 1.48358
140 1 -38.0906 6.4418 0.938363
141 1 -37.485 6.52679 0.272595
142 1 -36.8419 6.93983 -0.207476
143 1 -36.2293 7.43498 -0.70271
144 1 -35.5067 8.0206 -0.926983
145 1 -34.7766 8.54318 -1.23025
146 1 -34.0436 9.13225 -1.38095
147 1 -33.308 9.61023 -1.68346
148 1 -32.6506 10.1364 -2.11162
149 1 -31.902 10.5527 -2.45539
150 1 -31.0602 10.9599 -2.62952
151 1 -30.2392 11.3103 -2.52302
152 1 -29.489 11.8362 -2.31998
153 1 -28.7068 12.2837 -2.08449
154 1 -27.9324 12.718 -1.79111
155 1 -27.2722 13.1903 -1.46767
156 1 -26.4665 13.7281 -1.26375
157 1 -25.7312 14.3779 -1.09887
158 1 -25.151 14.9936 -0.708692
159 1 -24.7489 15.631 -0.237954
160 1 -24.292 16.2541 0.281505
161 1 -23.5427 16.6734 0.774472
162 1 -22.7564 17.0999 1.12566
163 1 -22.0753 17.469 1.67963
164 1 -21.6194 18.0317 2.26163
165 1 -21.1235 18.632 2.78896
166 1 -20.7046 19.2524 3.35847
167 1 -20.1354 19.7715 3.83407
168 1 -19.7105 20.3741 4.501
169 1 -19.2548 20.9261 5.17128
170 1 -18.7084 21.5059 5.68398
171 1 -18.0483 21.9156 6.22409
172 1 -17.3127 22.2671 6.752
173 1 -16.5172 22.4916 7.25393
174 1 -15.7096 22.5178 7.76096
175 1 -14.9336 22.5983 8.1746
176 1 -14.0213 22.8522 8.54844
177 1 -13.1598 23.0197 8.72804
178 1 -12.2939 23.1385 9.01502
179 1 -11.463 23.0031 9.44765
180 1 -10.662 22.6753 9.87517
181 1 -9.75992 22.3078 10.1088
182 1 -8.86803 22.0228 10.3896
183 1 -8.0461 21.7585 10.7313
184 1 -7.18632 21.4011 10.9261
185 1 -6.35862 21.062 11.31
186 1 -5.51953 20.6447 11.6139
187 1 -4.70312 20.2976 11.8766
188 1 -4.03808 19.7288 12.165
189 1 -3.35834 19.1416 12.485
190 1 -2.76095 18.5213 12.8825
191 1 -2.11739 17.925 13.1752
192 1 -1.39196 17.3077 13.3285
193 1 -0.88278 16.5901 13.6244
194 1 -0.575523 15.8254 14.0575
195 1 -0.281704 14.9955 14.3959
196 1 -0.0210245 14.1838 14.7597
197 1 0.248433 13.3135 14.9633
198 1 0.493738 12.402 15.0381
199 1 0.913204 11.5582 14.9676
200 1 1.1963 10.6361 14.9496
201 1 1.42919 9.80497 14.8888
202 1 1.73153 8.87757 14.8421
203 1 1.99586 8.03107 14.5592
204 1 2.0349 7.14625 14.3319
205 1 1.95165 6.2354 14.0426
206 1 1.70699 5.35227 13.7374
207 1 1.39102 4.47364 13.4601
208 1 1.22616 3.58527 13.3741
209 1 0.779711 2.73705 13.3094
210 1 0.184855 2.11163 12.9803
211 1 -0.523026 1.45813 12.8256
212 1 -1.23734 0.945966 12.4622
213 1 -1.90636 0.480082 11.9716
214 1 -2.58071 -0.00912427 11.5155
215 1 -3.29754 -0.285777 10.9644
216 1 -3.97308 -0.459963 10.4011
217 1 -4.53111 -0.556506 9.60464
218 1 -5.20622 -0.698335 9.00518
219 1 -5.9563 -0.737699 8.40046
220 1 -6.55601 -0.674384 7.68342
221 1 -7.24864 -0.651423 7.02151
222 1 -7.9397 -0.652492 6.4489
223 1 -8.47547 -0.511586 5.67599
224 1 -8.72945 -0.32846 4.83123
225 1 -8.81842 -0.0709717 3.952
226 1 -8.69907 0.132331 3.0395
227 1 -8.55278 0.338878 2.0895
228 1 -8.45788 0.757645 1.23739
229 1 -8.20056 1.17921 0.44522
230 1 -8.10229 1.77919 -0.238943
231 1 -7.94085 2.39135 -0.962045
232 1 -7.79585 3.01833 -1.65599
233 1 -7.6198 3.62124 -2.34
234 1 -7.29286 4.24954 -2.97019
235 1 -6.94318 4.97719 -3.5207
236 1 -6.62633 5.71706 -4.0287
237 1 -6.1339 6.41064 -4.45409
238 1 -5.51521 7.12213 -4.59848
239 1 -4.66546 7.52897 -4.56781
240 1 -3.86814 7.97068 -4.52997
241 1 -2.96531 8.2546 -4.4458
242 1 -2.11488 8.52533 -4.30949
243 1 -1.19569 8.81755 -3.9856
244 1 -0.496851 9.17208 -3.38575
245 1 0.257318 9.44477 -2.91304
246 1 0.966272 9.73729 -2.37356
247 1 1.74448 9.99272 -1.84778
248 1 2.40514 10.2948 -1.27802
249 1 3.11424 10.4777 -0.695815
250 1 3.82066 10.5274 -0.103722
251 1 4.65603 10.5454 0.298747
252 1 5.33675 10.3746 0.895933
253 1 5.98874 10.1411 1.53156
254 1 6.72124 9.95368 2.04792
255 1 7.47866 9.65996 2.51208
256 1 8.19013 9.18295 2.93847
257 1 8.77214 8.5737 3.3635
258 1 9.162 7.86871 3.71048
259 1 9.47089 6.98024 4.00786
260 1 9.75597 6.09931 4.16805
261 1 9.99113 5.25637 4.48849
262 1 10.272 4.47244 4.95098
263 1 10.7017 3.61873 5.26509
264 1 11.1349 2.82943 5.57577
265 1 11.6073 2.01669 5.84482
266 1 11.9266 1.12684 6.07954
267 1 12.2729 0.314103 6.15021
268 1 12.7386 -0.510022 6.18208
269 1 13.0866 -1.37053 5.96386
270 1 13.4599 -2.16803 5.85913
271 1 13.8363 -3.00674 5.62846
272 1 14.0275 -3.9083 5.2485
273 1 14.2566 -4.66943 4.71406
274 1 14.3297 -5.52584 4.25595
275 1 14.5383 -6.38203 3.8706
276 1 14.7074 -7.29534 3.69933
277 1 14.8027 -8.22472 3.41218
278 1 15.0125 -8.9652 2.87676
279 1 15.1987 -9.61318 2.25237
280 1 15.5611 -10.3411 1.80842
281 1 15.7797 -11.1409 1.31455
282 1 16.021 -11.8743 0.73955
283 1 16.4125 -12.4968 0.227176
284 1 16.6902 -12.9199 -0.575314
285 1 16.8084 -13.3877 -1.42708
286 1 16.9951 -13.8121 -2.21339
287 1 17.3052 -14.1724 -3.01174
288 1 17.8475 -14.5316 -3.70629
289 1 18.2878 -14.9638 -4.39829
290 1 18.7559 -15.3756 -5.11456
291 1 19.2875 -15.8167 -5.7868
292 1 19.808 -16.2991 -6.52347
293 1 20.3089 -16.763 -7.25518
294 1 20.5774 -17.1066 -8.09297
295 1 20.877 -17.4173 -8.9015
296 1 21.3705 -17.5548 -9.68836
297 1 21.9916 -17.2955 -10.3698
298 1 22.7034 -16.9468 -10.9157
299 1 23.5444 -16.6536 -11.348
300 1 24.3044 -16.1459 -11.5169
301 1 24.9965 -15.5726 -11.6199
302 1 25.6114 -14.8678 -11.5283
303 1 26.0746 -14.0737 -11.3305
304 1 26.6604 -13.42 -11.031
305 1 27.2679 -12.7735 -10.7615
306 1 27.8268 -12.0501 -10.4601
307 1 28.1338 -11.2888 -10.0261
308 1 28.6313 -10.6153 -9.63821
309 1 29.1375 -9.90353 -9.22729
310 1 29.6763 -9.28182 -8.79607
311 1 30.3676 -8.62271 -8.47322
312 1 30.8957 -7.90864 -8.19232
313 1 31.4501 -7.24411 -7.88613
314 1 31.8803 -6.52458 -7.51151
315 1 32.338 -5.78763 -7.1349
316 1 32.7355 -4.99657 -6.86506
317 1 33.1788 -4.20418 -6.54684
318 1 33.5448 -3.39006 -6.33817
319 1 34.0364 -2.62557 -6.08198
320 1 34.6608 -1.98183 -5.9031
321 1 35.2535 -1.40888 -5.54715
322 1 35.7961 -0.770074 -5.05181
323 1 36.4139 -0.0914773 -4.61295
324 1 37.0004 0.413391 -4.08461
325 1 37.4309 0.895374 -3.41567
326 1 37.9425 1.29595 -2.69196
327 1 38.5455 1.76671 -1.94253
328 1 39.2164 1.91084 -1.27673
329 1 39.8926 1.96121 -0.596829
330 1 40.582 2.10536 -0.0169662
331 1 41.2047 2.11354 0.720635
332 1 42.0012 2.07463 1.25013
333 1 42.8408 2.11942 1.64293
334 1 43.6449 2.076 2.09055
335 1 44.4608 2.02873 2.57606
336 1 45.1945 2.05508 3.16723
337 1 45.9935 1.87048 3.6755
338 1 46.8104 1.81857 4.06998
339 1 47.6589 1.73265 4.43835
340 1 48.5428 1.47298 4.71929
341 1 49.4122 1.32319 5.08706
342 1 50.308 1.25483 5.39058
343 1 51.1498 0.987551 5.76015
344 1 51.9288 0.615317 6.13102
345 1 52.7222 0.260646 6.48134
346 1 53.5147 -0.0284343 6.8136
347 1 54.2984 -0.432583 7.25809
348 1 55.0973 -0.835902 7.4584
349 1 56.0466 -0.998959 7.45135
350 1 56.9827 -0.946021 7.31162
351 1 57.8708 -0.693678 7.34156
352 1 58.8476 -0.438707 7.51871
353 1 59.7255 -0.223519 7.73055
354 1 60.6612 -0.0117983 7.78773
355 1 61.591 0.213595 7.8342
356 1 62.4581 0.527447 7.95664
357 1 63.3048 0.940843 8.0532
358 1 64.1024 1.39957 8.26283
359 1 64.9202 1.84322 8.23621
360 1 65.7752 2.32479 8.2382
361 1 66.5886 2.82381 8.20945
362 1 67.3808 3.34605 8.22524
363 1 68.0858 3.94387 8.24487
364 1 68.6561 4.72973 8.24911
365 1 69.1081 5.49566 7.98166
366 1 69.3878 6.24179 7.52186
367 1 69.6128 7.07168 7.05994
368 1 69.6905 7.77795 6.50091
369 1 69.5393 8.42343 5.84486
370 1 69.0956 8.9976 5.21875
371 1 68.6264 9.39686 4.52934
372 1 68.0783 9.66606 3.81511
373 1 67.3794 9.93502 3.18493
374 1 66.7156 9.99495 2.5431
375 1 66.1292 9.94163 1.85788
376 1 65.5974 9.67888 1.11491
377 1 65.302 9.46091 0.253156
378 1 64.8784 9.08255 -0.469578
379 1 64.4659 8.80556 -1.26512
380 1 64.0784 8.37012 -1.98957
381 1 63.5975 8.06927 -2.75753
382 1 62.9311 7.82514 -3.34809
383 1 62.2412 7.742 -4.01245
384 1 61.6325 7.84144 -4.72156
385 1 60.9331 8.03723 -5.35487
386 1 60.2777 8.33286 -6.1592
387 1 59.7095 8.53979 -6.88639
388 1 59.1851 8.993 -7.5609
389 1 58.6188 9.2081 -8.30587
390 1 57.9998 9.40835 -9.05486
391 1 57.4987 9.52536 -9.82707
392 1 56.8935 9.77931 -10.4759
393 1 56.4217 10.1597 -11.2078
394 1 55.8452 10.4821 -11.9158
395 1 55.4017 11.0588 -12.5716
396 1 54.9572 11.6555 -13.1658
397 1 54.456 12.165 -13.7263
398 1 54.0075 12.7588 -14.3339
399 1 53.8209 13.4041 -14.9717
400 1 53.5443 14.2 -15.4641
401 1 53.362 14.9447 -16.024
402 1 53.27 15.6973 -16.6254
403 1 53.2441 16.5594 -16.9341
404 1 53.2534 17.5424 -17.0909
405 1 53.2995 18.487 -17.1024
406 1 53.4428 19.3823 -16.8913
407 1 53.5144 20.2755 -16.683
408 1 53.6092 21.1838 -16.3349
409 1 53.8377 21.9065 -15.7689
410 1 54.0621 22.5124 -15.1471
411 1 54.4017 23.0567 -14.4581
412 1 54.7064 23.6467 -13.7598
413 1 54.999 24.1982 -13.0271
414 1 55.4435 24.615 -12.2888
415 1 56.0161 25.0393 -11.708
416 1 56.7561 25.2789 -11.1449
417 1 57.4442 25.5249 -10.5761
418 1 58.2155 25.7466 -10.0276
419 1 59.0095 25.8591 -9.56541
420 1 59.8845 25.7948 -9.24155
421 1 60.7524 25.7901 -8.98381
422 1 61.7082 25.697 -8.68945
423 1 62.6558 25.6156 -8.51948
424 1 63.585 25.5259 -8.26304
425 1 64.4516 25.5784 -8.04302
426 1 65.3614 25.5471 -7.96219
427 1 66.2366 25.3832 -7.85003
428 1 67.1999 25.2186 -7.7231
429 1 68.1205 25.0136 -7.7133
430 1 69.0325 24.7789 -7.76967
431 1 69.9881 24.6245 -7.91073
432 1 70.9684 24.6419 -7.93538
433 1 71.9116 24.7466 -7.96475
434 1 72.8204 24.9488 -8.26865
435 1 73.7086 25.0508 -8.47738
436 1 74.6497 25.2334 -8.37678
437 1 75.5619 25.2396 -8.44855
438 1 76.45 25.3434 -8.42398
439 1 77.3804 25.3413 -8.28729
440 1 78.2818 25.409 -8.0458
441 1 79.1698 25.4651 -7.63524
442 1 80.0499 25.4807 -7.29547