ITEM: TIMESTEP
2360000
ITEM: NUMBER OF ATOMS
512
ITEM: BOX BOUNDS mm mm mm
-2.5600000000000000e+02 2.5600000000000000e+02
-2.5600000000000000e+02 2.5600000000000000e+02
-2.5600000000000000e+02 2.5600000000000000e+02
ITEM: ATOMS id type x y z
1 1 -91.9975 -32.9512 -23.4979
2 1 -92.3617 -32.0729 -23.5024
3 1 -92.4494 -31.1113 -23.5111
4 1 -92.4326 -30.1755 -23.4669
5 1 -92.4353 -29.2411 -23.5834
6 1 -92.2902 -28.3531 -23.8051
7 1 -92.1073 -27.3794 -23.8343
8 1 -91.934 -26.5186 -24.0079
9 1 -91.7703 -25.6449 -23.9615
10 1 -91.5649 -24.7106 -23.8341
11 1 -91.4474 -23.823 -23.5762
12 1 -91.4739 -22.9287 -23.4315
13 1 -91.4696 -21.9499 -23.3264
14 1 -91.3497 -20.9917 -23.2904
15 1 -91.2903 -20.0197 -23.1725
16 1 -91.1271 -19.1154 -22.917
17 1 -91.2179 -18.1903 -22.7799
18 1 -91.46 -17.2736 -22.733
19 1 -91.6908 -16.394 -22.5051
20 1 -91.9469 -15.5567 -22.3486
21 1 -92.1198 -14.6698 -22.3652
22 1 -92.211 -13.713 -22.3159
23 1 -92.1504 -12.8207 -22.4485
24 1 -91.9978 -11.9768 -22.7914
25 1 -91.738 -11.0269 -22.7318
26 1 -91.5434 -10.1226 -22.6666
27 1 -91.2066 -9.26965 -22.4014
28 1 -90.8776 -8.45927 -22.1684
29 1 -90.427 -7.64525 -22.0565
30 1 -90.1096 -6.762 -21.9293
31 1 -89.9408 -5.8442 -21.7175
32 1 -89.6554 -4.93917 -21.6272
33 1 -89.1491 -4.13988 -21.4873
34 1 -88.5736 -3.42093 -21.5618
35 1 -87.9651 -2.72374 -21.7606
36 1 -87.2928 -2.05545 -21.8593
37 1 -86.6936 -1.31311 -21.8613
38 1 -86.187 -0.486536 -21.8713
39 1 -85.7861 0.429539 -21.8386
40 1 -85.4747 1.3035 -21.7877
41 1 -84.9141 2.08711 -21.8995
42 1 -84.2936 2.76834 -22.0417
43 1 -83.5662 3.42916 -22.09
44 1 -82.9122 4.10609 -22.2343
45 1 -82.1487 4.59694 -22.53
46 1 -81.5413 5.31554 -22.7402
47 1 -80.9634 5.95617 -23.0875
48 1 -80.3957 6.56364 -23.4734
49 1 -79.8006 7.20754 -23.8987
50 1 -79.279 7.82675 -24.3361
51 1 -78.7738 8.49939 -24.7448
52 1 -78.2525 9.1731 -25.0174
53 1 -77.6803 9.95475 -25.3165
54 1 -77.1455 10.7223 -25.4707
55 1 -76.6003 11.4643 -25.4519
56 1 -76.0794 12.2124 -25.4152
57 1 -75.5777 12.9981 -25.2604
58 1 -75.1518 13.824 -25.0935
59 1 -74.7589 14.6242 -24.9189
60 1 -74.2695 15.4227 -24.6909
61 1 -73.8923 16.1309 -24.2073
62 1 -73.4955 16.7817 -23.6608
63 1 -73.297 17.4059 -23.0135
64 1 -73.1087 18.0523 -22.3241
65 1 -72.9459 18.6275 -21.5788
66 1 -72.5426 19.0399 -20.7342
67 1 -71.9765 19.4717 -20.1141
68 1 -71.4086 20.0469 -19.6751
69 1 -70.8863 20.6975 -19.2288
70 1 -70.2711 21.3683 -19.0329
71 1 -69.6961 22.0189 -18.7073
72 1 -68.9677 22.502 -18.3911
73 1 -68.3286 22.9743 -17.8728
74 1 -67.7887 23.4392 -17.3145
75 1 -67.2193 23.8109 -16.6216
76 1 -66.7669 24.2891 -16.004
77 1 -66.1775 24.6453 -15.362
78 1 -65.5475 24.9464 -14.7893
79 1 -64.8986 25.443 -14.2004
80 1 -64.1405 25.7494 -13.7424
81 1 -63.3568 26.0867 -13.4545
82 1 -62.525 26.4326 -13.0925
83 1 -61.5699 26.6936 -12.8539
84 1 -60.6866 27.0815 -12.691
85 1 -60.0003 27.5056 -12.2637
86 1 -59.3557 27.8175 -11.6342
87 1 -58.8302 27.9813 -10.8946
88 1 -58.1997 28.1533 -10.193
89 1 -57.4879 28.3388 -9.62814
90 1 -56.7562 28.3949 -8.95768
91 1 -56.0303 28.3702 -8.36176
92 1 -55.3346 28.4533 -7.69314
93 1 -54.6679 28.3819 -7.03243
94 1 -54.0432 28.3478 -6.25587
95 1 -53.4425 28.1936 -5.51378
96 1 -52.8883 28.0004 -4.7966
97 1 -52.3766 27.6546 -4.03731
98 1 -51.9466 27.3384 -3.24912
99 1 -51.6422 26.9641 -2.4882
100 1 -51.3033 26.4843 -1.74065
101 1 -51.1231 25.8441 -1.02388
102 1 -50.9102 25.2552 -0.315302
103 1 -50.7761 24.709 0.483295
104 1 -50.5868 24.1908 1.27824
105 1 -50.4745 23.7225 2.05601
106 1 -50.2128 23.2279 2.78478
107 1 -50.0116 22.7843 3.56987
108 1 -49.7952 22.0581 4.13816
109 1 -49.7089 21.2092 4.51683
110 1 -49.6429 20.3185 4.84725
111 1 -49.4939 19.4028 4.93419
112 1 -49.3788 18.5114 4.92944
113 1 -49.1133 17.6389 4.92796
114 1 -48.8341 16.7717 4.86483
115 1 -48.5193 15.8549 4.75071
116 1 -48.2122 14.99 4.57486
117 1 -47.7232 14.236 4.36077
118 1 -47.1526 13.4757 4.21562
119 1 -46.4692 12.8691 3.94146
120 1 -45.613 12.4031 3.65063
121 1 -44.8406 11.9828 3.31905
122 1 -44.0129 11.611 2.9734
123 1 -43.1934 11.1969 2.71094
124 1 -42.3067 10.8005 2.49235
125 1 -41.4655 10.4834 2.29532
126 1 -40.5256 10.2839 2.2342
127 1 -39.606 10.3465 2.13185
128 1 -38.6554 10.4783 2.05929
129 1 -37.7017 10.7721 1.98835
130 1 -36.8303 11.0499 1.90353
131 1 -35.9741 11.4541 1.81777
132 1 -35.052 11.7505 1.9006
133 1 -34.2313 12.1474 1.9065
134 1 -33.3785 12.5881 1.99543
135 1 -32.6361 13.1751 2.27864
136 1 -31.8549 13.7454 2.3663
137 1 -31.0978 14.3207 2.26101
138 1 -30.1803 14.7101 2.2586
139 1 -29.3964 15.123 2.47722
140 1 -28.6617 15.5445 2.82464
141 1 -28.0186 16.1591 3.18832
142 1 -27.2914 16.7352 3.37468
143 1 -26.5385 17.3008 3.49482
144 1 -25.695 17.7677 3.64301
145 1 -24.9263 18.2391 3.63624
146 1 -24.1436 18.7535 3.67269
147 1 -23.3647 19.3566 3.52529
148 1 -22.5749 19.9918 3.37266
149 1 -21.8993 20.6401 3.31553
150 1 -21.1846 21.2855 3.19991
151 1 -20.4654 21.9189 3.01997
152 1 -19.7631 22.4905 2.97047
153 1 -19.0681 23.1164 2.91229
154 1 -18.3238 23.6223 2.74563
155 1 -17.5436 24.193 2.5334
156 1 -16.7501 24.5431 2.28162
157 1 -15.9276 24.8667 2.11572
158 1 -15.1163 25.3112 2.02323
159 1 -14.3833 25.8245 1.9712
160 1 -13.5438 26.1995 2.08663
161 1 -12.652 26.4739 1.98299
162 1 -11.773 26.6333 1.86714
163 1 -10.8932 26.7534 2.02734
164 1 -10.0187 27.1329 2.26607
165 1 -9.4165 27.6839 2.64838
166 1 -8.7455 28.1626 3.02565
167 1 -8.01212 28.5526 3.52278
168 1 -7.28124 28.815 4.00157
169 1 -6.47981 29.1873 4.37151
170 1 -5.79824 29.5298 4.89476
171 1 -5.15569 29.7944 5.50434
172 1 -4.49391 30.0072 6.10333
173 1 -4.01642 30.4537 6.76787
174 1 -3.7306 30.7927 7.58595
175 1 -3.50798 30.9531 8.48525
176 1 -3.54121 31.0052 9.39137
177 1 -3.51956 30.8324 10.3176
178 1 -3.50727 30.6837 11.2584
179 1 -3.43609 30.5805 12.2045
180 1 -3.31116 30.4109 13.1167
181 1 -3.098 30.1319 14.0327
182 1 -2.94208 29.789 14.9035
183 1 -2.62372 29.4566 15.7149
184 1 -2.16602 29.2407 16.4983
185 1 -1.64475 28.9324 17.2078
186 1 -1.15868 28.5907 17.9526
187 1 -0.575024 28.3022 18.6911
188 1 -0.0547056 27.8789 19.4075
189 1 0.362693 27.3858 20.0563
190 1 0.664548 26.7249 20.7052
191 1 0.917351 26.0539 21.2566
192 1 1.20129 25.498 21.9908
193 1 1.35748 24.8703 22.6986
194 1 1.391 24.2897 23.3987
195 1 1.53867 23.6112 23.9868
196 1 1.71077 22.8529 24.5935
197 1 1.91049 22.283 25.2459
198 1 1.95748 21.767 26.0501
199 1 1.90505 21.0777 26.661
200 1 1.89376 20.2163 27.0849
201 1 1.9018 19.3454 27.4164
202 1 1.98714 18.4724 27.814
203 1 1.95995 17.5936 28.1705
204 1 2.04703 16.7313 28.5609
205 1 2.0732 15.8198 28.7527
206 1 2.00944 14.9246 28.9225
207 1 2.06884 13.9974 29.1247
208 1 1.96354 13.0817 29.3145
209 1 2.04996 12.1865 29.4814
210 1 2.17616 11.2641 29.6438
211 1 2.43115 10.3307 29.5077
212 1 2.60143 9.40309 29.447
213 1 2.9769 8.551 29.1977
214 1 3.38408 7.78654 28.8019
215 1 3.62644 6.99322 28.3939
216 1 3.6313 6.06639 28.1041
217 1 3.38251 5.30688 27.574
218 1 3.15971 4.53745 27.1128
219 1 2.85484 3.83868 26.5922
220 1 2.57934 3.12017 26.0002
221 1 2.23052 2.5314 25.3057
222 1 1.92695 1.94324 24.6833
223 1 1.48303 1.24957 24.2772
224 1 0.970448 0.616955 23.8096
225 1 0.517553 -0.00925233 23.3397
226 1 0.164 -0.673593 22.7518
227 1 -0.236075 -1.29235 22.1933
228 1 -0.66216 -1.8712 21.4764
229 1 -1.11977 -2.22745 20.7266
230 1 -1.65644 -2.40668 19.9055
231 1 -2.09651 -2.4306 19.088
232 1 -2.42841 -2.45045 18.1572
233 1 -2.63171 -2.54696 17.2497
234 1 -3.01546 -2.38045 16.4309
235 1 -3.42062 -2.29662 15.6145
236 1 -3.80376 -2.21313 14.7542
237 1 -4.07099 -1.95646 13.8298
238 1 -4.33336 -1.78655 12.945
239 1 -4.40508 -1.60236 12.0452
240 1 -4.50055 -1.34279 11.1531
241 1 -4.53499 -1.04936 10.2631
242 1 -4.56467 -0.731834 9.3126
243 1 -4.5316 -0.637268 8.41396
244 1 -4.4746 -0.308647 7.52716
245 1 -4.39821 0.0322972 6.62928
246 1 -4.35608 0.444968 5.83746
247 1 -4.41209 0.808677 4.96165
248 1 -4.29649 1.11312 4.11995
249 1 -4.31381 1.47609 3.25899
250 1 -4.34856 1.65604 2.35027
251 1 -4.39839 1.70926 1.35765
252 1 -4.4184 1.70949 0.399246
253 1 -4.18973 1.68294 -0.514136
254 1 -3.92149 1.56158 -1.39433
255 1 -3.45493 1.42902 -2.20263
256 1 -3.03081 1.39187 -2.99369
257 1 -2.46155 1.31454 -3.77261
258 1 -1.98345 1.40664 -4.59135
259 1 -1.51405 1.35245 -5.43333
260 1 -0.876047 1.53173 -6.12086
261 1 -0.264647 1.79794 -6.76305
262 1 0.477781 2.13187 -7.29693
263 1 1.14094 2.55528 -7.8106
264 1 1.84661 3.04302 -8.21661
265 1 2.67449 3.4563 -8.62772
266 1 3.51384 3.81767 -8.83415
267 1 4.41089 4.03228 -9.00679
268 1 5.29965 4.04533 -9.23804
269 1 6.18102 3.92507 -9.613
270 1 7.0383 4.03665 -10.0046
271 1 7.9785 4.19743 -10.1465
272 1 8.88362 4.36171 -10.388
273 1 9.82032 4.50337 -10.7032
274 1 10.6583 4.86723 -10.7942
275 1 11.5781 5.11145 -10.857
276 1 12.4936 5.23284 -11.0089
277 1 13.4179 5.1128 -11.0687
278 1 14.3976 5.15838 -11.039
279 1 15.3204 5.14424 -11.1436
280 1 16.1875 4.89092 -11.2431
281 1 16.9192 4.29686 -11.0968
282 1 17.5912 3.6643 -10.911
283 1 18.2739 3.13257 -10.5701
284 1 19.0029 2.56234 -10.2452
285 1 19.6893 2.1205 -9.85837
286 1 20.4455 1.65544 -9.66269
287 1 21.1391 1.02454 -9.59536
288 1 21.7196 0.363096 -9.36895
289 1 22.4379 -0.188163 -9.1391
290 1 23.2674 -0.549087 -8.97294
291 1 24.1144 -0.961354 -8.7677
292 1 24.965 -1.30007 -8.75047
293 1 25.8503 -1.6188 -8.87224
294 1 26.7462 -1.87752 -9.0048
295 1 27.6246 -2.15582 -9.07245
296 1 28.4525 -2.63048 -9.09628
297 1 29.2571 -3.09497 -9.21975
298 1 29.9411 -3.75357 -9.51808
299 1 30.723 -4.22717 -9.76703
300 1 31.4895 -4.82305 -9.92224
301 1 32.206 -5.32396 -10.2074
302 1 32.9746 -5.82989 -10.2975
303 1 33.698 -6.47025 -10.3239
304 1 34.417 -7.04256 -10.2454
305 1 35.2567 -7.41322 -10.2585
306 1 36.1517 -7.74053 -10.1413
307 1 37.0173 -8.05084 -9.90644
308 1 37.9447 -8.07939 -9.59872
309 1 38.7512 -7.99853 -9.13898
310 1 39.4488 -7.96991 -8.44474
311 1 40.1751 -7.90597 -7.84762
312 1 41.0288 -7.75059 -7.35204
313 1 41.7143 -7.58646 -6.76483
314 1 42.4325 -7.51105 -6.28969
315 1 43.2581 -7.57632 -5.8529
316 1 44.1503 -7.43248 -5.46156
317 1 44.9329 -7.15129 -5.00647
318 1 45.66 -7.14914 -4.42334
319 1 46.4446 -7.20372 -3.85337
320 1 47.3253 -7.26768 -3.52836
321 1 48.142 -7.20078 -3.0254
322 1 48.9945 -7.28106 -2.66567
323 1 49.9227 -7.43005 -2.34325
324 1 50.8194 -7.74283 -2.10679
325 1 51.6611 -8.17602 -1.96702
326 1 52.4471 -8.65216 -1.97703
327 1 53.2928 -9.16671 -1.93584
328 1 54.0878 -9.65541 -1.85352
329 1 54.9653 -9.92668 -1.73401
330 1 55.8642 -10.2134 -1.84336
331 1 56.6975 -10.5372 -1.94479
332 1 57.6243 -10.7329 -1.98826
333 1 58.5905 -10.9279 -1.99999
334 1 59.5051 -10.9968 -1.77123
335 1 60.4089 -10.9181 -1.61735
336 1 61.2738 -10.6837 -1.59636
337 1 62.2108 -10.5114 -1.70741
338 1 63.088 -10.2302 -1.8015
339 1 63.9215 -9.88006 -2.03238
340 1 64.6361 -9.41494 -2.33574
341 1 65.2829 -8.77573 -2.59611
342 1 65.6792 -7.97211 -2.73561
343 1 66.1369 -7.22834 -3.02749
344 1 66.5185 -6.43613 -3.38946
345 1 67.0336 -5.60147 -3.52004
346 1 67.3408 -4.76783 -3.78839
347 1 67.5904 -3.91644 -4.03778
348 1 67.9198 -3.06661 -4.12693
349 1 68.1601 -2.17388 -4.25075
350 1 68.4094 -1.27076 -4.22741
351 1 68.5438 -0.29393 -4.27655
352 1 68.5232 0.634175 -4.22827
353 1 68.3526 1.59186 -4.33673
354 1 68.1469 2.48172 -4.5934
355 1 67.9993 3.37315 -4.67493
356 1 68.0117 4.31546 -4.70723
357 1 67.8477 5.25843 -4.64211
358 1 67.5592 6.12069 -4.61984
359 1 67.2639 6.99091 -4.80093
360 1 66.9529 7.90725 -5.13157
361 1 66.6714 8.72109 -5.64656
362 1 66.3206 9.31072 -6.31977
363 1 65.9814 9.85965 -7.01492
364 1 65.6312 10.3598 -7.82639
365 1 65.368 10.8683 -8.55571
366 1 65.2948 11.4774 -9.23758
367 1 65.2099 12.0081 -9.97114
368 1 65.0282 12.7145 -10.7029
369 1 64.6025 13.4008 -11.1945
370 1 64.1648 13.9708 -11.7671
371 1 63.7472 14.6689 -12.2595
372 1 63.5035 15.3902 -12.7596
373 1 62.9777 16.1266 -12.9915
374 1 62.4511 16.9611 -13.2356
375 1 61.8549 17.7163 -13.3688
376 1 61.2245 18.4117 -13.4904
377 1 60.5021 19.0563 -13.4958
378 1 59.8844 19.7236 -13.4073
379 1 59.2107 20.4116 -13.3193
380 1 58.6923 21.1988 -13.2209
381 1 58.343 22.1218 -13.1101
382 1 57.9991 23.0157 -12.928
383 1 57.6987 23.8547 -12.7637
384 1 57.4028 24.6857 -12.4355
385 1 56.9952 25.5771 -12.1685
386 1 56.4933 26.422 -11.8696
387 1 56.0755 27.2173 -11.7653
388 1 55.7203 28.1061 -11.7658
389 1 55.5726 29.0312 -11.6542
390 1 55.4687 29.9602 -11.4267
391 1 55.3954 30.8206 -11.0896
392 1 55.4093 31.6221 -10.6942
393 1 55.3011 32.4147 -10.2341
394 1 55.4463 33.2579 -9.82121
395 1 55.8739 34.0342 -9.49888
396 1 56.2 34.8488 -9.20425
397 1 56.4176 35.704 -8.81126
398 1 56.8161 36.4464 -8.38252
399 1 57.2632 37.1568 -7.97627
400 1 57.7825 37.8036 -7.57044
401 1 58.361 38.3927 -7.17636
402 1 58.8897 38.9915 -6.58982
403 1 59.3456 39.5681 -5.95612
404 1 59.7655 40.1971 -5.24287
405 1 60.2353 40.6942 -4.52535
406 1 60.6277 41.1708 -3.86676
407 1 61.0128 41.6734 -3.20736
408 1 61.3127 42.3982 -2.67263
409 1 61.538 43.2351 -2.38048
410 1 61.807 44.0843 -2.24077
411 1 62.2163 44.9159 -2.1126
412 1 62.7114 45.6605 -1.68624
413 1 63.2118 46.3757 -1.25676
414 1 63.8176 46.9495 -0.806266
415 1 64.5904 47.2151 -0.391554
416 1 65.3601 47.4284 0.0459943
417 1 66.2322 47.7313 0.37281
418 1 67.1425 47.9603 0.5762
419 1 68.0342 48.1234 0.91394
420 1 68.8331 48.0652 1.41054
421 1 69.5969 48.0262 1.8991
422 1 70.4555 47.7695 2.20694
423 1 71.3586 47.6193 2.41949
424 1 72.2543 47.4392 2.63097
425 1 73.1069 47.1953 2.98272
426 1 73.8972 46.7923 3.27101
427 1 74.7074 46.373 3.38129
428 1 75.5873 45.9397 3.49012
429 1 76.3659 45.4325 3.47044
430 1 77.2042 44.9328 3.58314
431 1 78.0037 44.4252 3.69238
432 1 78.7829 43.8631 3.89167
433 1 79.65 43.538 4.16869
434 1 80.5715 43.3094 4.32266
435 1 81.4607 43.0486 4.14266
436 1 82.2727 42.6449 3.83634
437 1 83.0636 42.2247 3.60325
438 1 83.7461 41.6254 3.2345
439 1 84.3814 40.9786 2.90246
440 1 84.8025 40.0733 2.8104
441 1 85.2479 39.2819 2.7279
442 1 85.6638 38.4719 2.47902
443 1 86.0111 37.7137 2.06121
444 1 86.3198 36.9518 1.57784
445 1 86.542 36.0822 1.28257
446 1 86.7996 35.2402 1.00587
447 1 87.0026 34.3562 0.761909
448 1 87.2284 33.5415 0.456962
449 1 87.5918 32.7819 -0.0112254
450 1 87.824 31.9909 -0.403114
451 1 87.9222 31.1928 -1.01989
452 1 88.2373 30.6024 -1.70758
453 1 88.4733 30.1206 -2.47106
454 1 88.6694 29.6582 -3.25092
455 1 88.7869 29.2977 -4.12713
456 1 88.7755 28.8543 -4.93621
457 1 88.6449 28.2832 -5.673
458 1 88.4713 27.7015 -6.34166
459 1 88.1427 27.072 -6.98497
460 1 87.6034 26.5953 -7.6355
461 1 87.1284 26.1443 -8.27541
462 1 86.6817 25.5847 -8.89873
463 1 86.0591 24.9671 -9.28302
464 1 85.4601 24.4026 -9.62343
465 1 84.7026 23.9242 -10.0069
466 1 83.9817 23.604 -10.5268
467 1 83.1798 23.3129 -10.9309
468 1 82.3936 23.0015 -11.3018
469 1 81.6711 22.7739 -11.8357
470 1 80.9218 22.4376 -12.2877
471 1 80.0892 22.1642 -12.6821
472 1 79.273 21.937 -13.1061
473 1 78.552 21.7397 -13.7536
474 1 77.8328 21.5539 -14.2825
475 1 77.0579 21.4693 -14.7845
476 1 76.2158 21.2972 -15.1877
477 1 75.4654 20.9274 -15.7606
478 1 74.7651 20.6001 -16.4585
479 1 74.1373 20.373 -17.1223
480 1 73.6361 20.2557 -17.9381
481 1 73.2613 20.1904 -18.8014
482 1 72.729 19.9501 -19.5216
483 1 72.1749 19.8148 -20.2658
484 1 71.7166 19.6901 -21.0505
485 1 71.337 19.7759 -21.9339
486 1 70.8935 20.0225 -22.6729
487 1 70.427 20.2972 -23.4763
488 1 69.9898 20.691 -24.1911
489 1 69.8046 20.975 -25.0305
490 1 69.6382 21.311 -25.9543
491 1 69.5204 21.6645 -26.8268
492 1 69.4532 21.8991 -27.6867
493 1 69.3156 22.2236 -28.5533
494 1 69.297 22.614 -29.4047
495 1 69.2216 22.9556 -30.2906
496 1 69.3006 23.2641 -31.1936
497 1 69.0914 23.4978 -32.1886
498 1 68.9687 23.6706 -33.1261
499 1 68.8748 23.815 -34.044
500 1 68.7005 23.9908 -34.9905
501 1 68.5075 24.2499 -35.9334
502 1 68.1849 24.7254 -36.7704
503 1 68.0145 25.3845 -37.4575
504 1 67.92 25.9959 -38.1336
505 1 67.7021 26.5586 -38.8414
506 1 67.4659 26.9135 -39.6922
507 1 67.2516 27.3851 -40.4938
508 1 67.1049 28.016 -41.1495
509 1 66.9604 28.8363 -41.6295
510 1 66.6961 29.6055 -42.0518
511 1 66.4163 30.4142 -42.4407
512 1 65.9826 31.1835 -42.7796
ITEM: TIMESTEP
2370000
ITEM: NUMBER OF ATOMS
512
ITEM: BOX BOUNDS mm mm mm
-2.5600000000000000e+02 2.5600000000000000e+02
-2.5600000000000000e+02 2.5600000000000000e+02
-2.5600000000000000e+02 2.5600000000000000e+02
ITEM: ATOMS id type x y z
1 1 -92.2539 -29.8096 -30.3262
2 1 -92.0576 -29.2711 -29.5623
3 1 -91.8043 -28.6831 -28.881
4 1 -91.7728 -28.0499 -28.2473
5 1 -91.6822 -27.2368 -27.7474
6 1 -91.4318 -26.4376 -27.2082
7 1 -91.045 -25.736 -26.7172
8 1 -90.5786 -25.1468 -26.1098
9 1 -90.1757 -24.5384 -25.4635
10 1 -89.7803 -23.8546 -24.9391
11 1 -89.5359 -23.1906 -24.3405
12 1 -89.2547 -22.456 -23.7937
13 1 -88.9805 -21.5857 -23.4631
14 1 -88.7647 -20.6343 -23.3214
15 1 -88.6448 -19.719 -23.1628
16 1 -88.6667 -18.8064 -22.9791
17 1 -88.6539 -17.8725 -23.0245
18 1 -88.4411 -16.9115 -23.0838
19 1 -88.2191 -16.035 -23.235
20 1 -88.1525 -15.1291 -23.6667
21 1 -88.0044 -14.2966 -23.9048
22 1 -87.8391 -13.4609 -24.2921
23 1 -87.6888 -12.656 -24.7319
24 1 -87.4893 -11.8483 -25.0525
25 1 -87.2161 -11.0259 -25.3638
26 1 -86.861 -10.2434 -25.6335
27 1 -86.3761 -9.43984 -25.8492
28 1 -86.0956 -8.60276 -26.1457
29 1 -85.7478 -7.73496 -26.3743
30 1 -85.6272 -6.83877 -26.5924
31 1 -85.6119 -5.91425 -26.8995
32 1 -85.6336 -5.01653 -27.2091
33 1 -85.7902 -4.07845 -27.5091
34 1 -85.9131 -3.24252 -27.8023
35 1 -86.0589 -2.29878 -27.9225
36 1 -86.176 -1.36379 -28.0226
37 1 -86.1574 -0.469718 -28.0678
38 1 -86.0879 0.492785 -28.1837
39 1 -86.0706 1.40395 -28.2241
40 1 -86.0019 2.30745 -28.4694
41 1 -85.7215 3.19164 -28.6355
42 1 -85.395 4.06185 -28.7209
43 1 -85.1085 4.93843 -28.9119
44 1 -84.921 5.89281 -28.8254
45 1 -84.5297 6.80425 -28.7714
46 1 -84.0471 7.60397 -28.6353
47 1 -83.6162 8.36585 -28.3986
48 1 -83.1279 9.09901 -28.101
49 1 -82.4983 9.80823 -27.8187
50 1 -81.806 10.4 -27.4931
51 1 -81.1992 11.0528 -27.1784
52 1 -80.5415 11.6053 -26.7592
53 1 -80.0299 12.253 -26.3482
54 1 -79.4467 12.7222 -25.7764
55 1 -78.8856 13.1979 -25.2071
56 1 -78.4701 13.7917 -24.5577
57 1 -78.0046 14.3869 -24.0063
58 1 -77.3813 14.8069 -23.4981
59 1 -76.8149 15.221 -22.8792
60 1 -76.219 15.8177 -22.4315
61 1 -75.5549 16.3705 -22.0669
62 1 -74.7482 16.8962 -21.8
63 1 -74.0875 17.5194 -21.4193
64 1 -73.5086 18.0862 -21.0115
65 1 -72.798 18.5965 -20.8052
66 1 -72.0162 19.0913 -20.6756
67 1 -71.2259 19.6841 -20.5008
68 1 -70.3159 20.084 -20.3525
69 1 -69.5782 20.6918 -20.212
70 1 -68.8686 21.322 -20.0877
71 1 -68.2352 21.946 -19.8773
72 1 -67.5261 22.5298 -19.7827
73 1 -66.768 23.0502 -19.7113
74 1 -66.0383 23.5524 -19.5703
75 1 -65.257 24.0874 -19.4127
76 1 -64.3805 24.4894 -19.3109
77 1 -63.5567 24.9504 -19.1696
78 1 -62.7861 25.4351 -19.0038
79 1 -62.0546 25.9908 -18.8266
80 1 -61.3299 26.4506 -18.4932
81 1 -60.5716 26.9071 -18.1579
82 1 -59.7178 27.0477 -17.7283
83 1 -59.0192 27.2411 -17.0932
84 1 -58.3734 27.493 -16.4575
85 1 -57.8743 27.797 -15.681
86 1 -57.5769 28.1476 -14.8159
87 1 -57.2037 28.4429 -13.9769
88 1 -56.7699 28.62 -13.1331
89 1 -56.256 28.798 -12.381
90 1 -55.7739 28.7631 -11.5499
91 1 -55.3278 28.5958 -10.6778
92 1 -55.0134 28.2069 -9.91081
93 1 -54.7729 27.918 -8.97105
94 1 -54.5141 27.5425 -8.10641
95 1 -54.3042 27.2249 -7.27422
96 1 -54.1026 27.1076 -6.32894
97 1 -53.832 27.021 -5.44443
98 1 -53.5891 26.7156 -4.59776
99 1 -53.4709 26.2733 -3.77838
100 1 -53.3397 25.7548 -2.99981
101 1 -53.1718 25.1707 -2.32782
102 1 -52.8547 24.4661 -1.70576
103 1 -52.3434 23.7706 -1.23337
104 1 -51.8674 22.9989 -0.993452
105 1 -51.3926 22.248 -0.54874
106 1 -50.8627 21.5959 -0.144319
107 1 -50.2647 21.0451 0.401827
108 1 -49.5971 20.5514 0.892857
109 1 -48.9154 20.0267 1.24614
110 1 -48.2015 19.5267 1.69465
111 1 -47.5842 18.9797 2.14221
112 1 -47.1079 18.3082 2.52992
113 1 -46.4752 17.6126 2.92461
114 1 -45.8496 17.0609 3.34938
115 1 -45.1593 16.5974 3.79723
116 1 -44.4133 16.0997 4.05605
117 1 -43.5912 15.7663 4.37295
118 1 -42.7813 15.4591 4.78841
119 1 -41.8476 15.2447 5.02758
120 1 -40.9228 15.0244 5.27911
121 1 -40.0289 14.7433 5.44538
122 1 -39.0789 14.535 5.55976
123 1 -38.1334 14.5156 5.56228
124 1 -37.1773 14.3939 5.37815
125 1 -36.2655 14.0783 5.22514
126 1 -35.4834 13.7291 4.93588
127 1 -34.6091 13.4814 4.72389
128 1 -33.7611 13.2488 4.37494
129 1 -32.9688 13.0839 3.95603
130 1 -32.2813 12.9353 3.37482
131 1 -31.5441 12.8486 2.84889
132 1 -30.7685 12.7371 2.33259
133 1 -29.9913 12.7942 1.73582
134 1 -29.3807 13.0123 1.03713
135 1 -28.6844 13.3393 0.477008
136 1 -28.1076 13.7404 -0.0751026
137 1 -27.5311 14.3427 -0.480193
138 1 -26.976 14.9621 -0.824731
139 1 -26.3396 15.6019 -0.998115
140 1 -25.6985 16.1595 -1.34338
141 1 -25.1495 16.8737 -1.59549
142 1 -24.8023 17.7635 -1.76141
143 1 -24.3947 18.5778 -1.99706
144 1 -23.7625 19.2996 -1.87945
145 1 -23.1112 19.9803 -1.7624
146 1 -22.4043 20.5667 -1.73013
147 1 -21.7407 21.2065 -1.66734
148 1 -20.9783 21.774 -1.53588
149 1 -20.3083 22.4001 -1.44384
150 1 -19.6113 22.9795 -1.25178
151 1 -18.9303 23.5359 -1.0011
152 1 -18.1551 24.0531 -0.848666
153 1 -17.307 24.5234 -0.551638
154 1 -16.4324 24.8824 -0.327151
155 1 -15.527 25.2047 -0.0785235
156 1 -14.6635 25.3276 0.24129
157 1 -13.8129 25.6126 0.530868
158 1 -13.0139 25.8877 0.941023
159 1 -12.3834 26.1642 1.56171
160 1 -11.6544 26.4841 2.01522
161 1 -10.9425 27.0143 2.37156
162 1 -10.2856 27.4881 2.88172
163 1 -9.44883 27.8292 3.23596
164 1 -8.69496 28.1578 3.6802
165 1 -7.86915 28.256 4.23137
166 1 -7.17193 28.3178 4.86541
167 1 -6.48523 28.6425 5.40365
168 1 -5.67563 28.964 5.92132
169 1 -4.87327 29.2861 6.40619
170 1 -4.09381 29.4224 6.84852
171 1 -3.29026 29.6055 7.32726
172 1 -2.4793 29.7116 7.79076
173 1 -1.78708 30.0479 8.26529
174 1 -1.04846 30.3948 8.74684
175 1 -0.145834 30.5167 9.1549
176 1 0.637935 30.6323 9.6978
177 1 1.31383 30.6655 10.3054
178 1 1.91613 30.8583 11.0801
179 1 2.4634 30.9463 11.8892
180 1 2.89836 30.8235 12.7649
181 1 3.17308 30.4577 13.6056
182 1 3.46316 30.0255 14.3687
183 1 3.65482 29.6576 15.2127
184 1 3.77088 29.2055 16.0407
185 1 3.91668 28.7902 16.8774
186 1 4.26091 28.1985 17.5542
187 1 4.53467 27.5856 18.1692
188 1 4.60225 27.0711 18.9616
189 1 4.55701 26.6369 19.7539
190 1 4.51413 26.1385 20.5136
191 1 4.43856 25.5719 21.2791
192 1 4.1879 25.1811 22.1186
193 1 4.15026 24.7865 22.9426
194 1 3.95123 24.4774 23.8166
195 1 3.89137 24.0971 24.6613
196 1 3.76346 23.4944 25.3481
197 1 3.64599 22.8235 26.0138
198 1 3.60669 22.0117 26.4854
199 1 3.51886 21.1674 26.9528
200 1 3.33181 20.4328 27.4834
201 1 3.09042 19.7058 27.9661
202 1 2.76388 18.8944 28.2634
203 1 2.533 18.0144 28.5104
204 1 2.37547 17.0779 28.6837
205 1 2.39136 16.1651 28.8519
206 1 2.45466 15.2434 28.8793
207 1 2.53983 14.2664 28.7253
208 1 2.66675 13.3315 28.6684
209 1 2.94595 12.428 28.6362
210 1 3.14814 11.5439 28.5069
211 1 3.45184 10.6594 28.5273
212 1 3.54802 9.72772 28.5332
213 1 3.63058 8.82277 28.584
214 1 3.59855 7.88976 28.7553
215 1 3.61663 6.92381 28.9203
216 1 3.6627 6.00741 29.0058
217 1 3.81297 5.07884 29.05
218 1 3.98352 4.10579 29.1367
219 1 4.12306 3.26152 28.8981
220 1 4.19274 2.39871 28.6176
221 1 4.29793 1.49214 28.358
222 1 4.33136 0.636177 27.9931
223 1 4.34844 -0.0747058 27.4489
224 1 4.43809 -0.781023 26.821
225 1 4.69822 -1.25851 26.07
226 1 4.93359 -1.78908 25.2886
227 1 5.20905 -2.1292 24.44
228 1 5.30713 -2.64701 23.6572
229 1 5.30788 -3.11853 22.7754
230 1 5.21683 -3.3941 21.854
231 1 5.11103 -3.55123 20.9551
232 1 4.77107 -3.67049 20.0877
233 1 4.31496 -3.64503 19.2274
234 1 3.90124 -3.71025 18.3752
235 1 3.51695 -3.56686 17.5437
236 1 3.08868 -3.21726 16.7991
237 1 2.79711 -2.70513 16.0545
238 1 2.60803 -2.18272 15.2741
239 1 2.32318 -1.80377 14.4863
240 1 2.11888 -1.4907 13.673
241 1 1.87154 -1.23479 12.824
242 1 1.6092 -1.0381 11.9619
243 1 1.24428 -0.811703 11.0868
244 1 0.935825 -0.479718 10.333
245 1 0.614382 -0.359384 9.48688
246 1 0.207872 -0.231847 8.66569
247 1 -0.0637342 -0.131779 7.77746
248 1 -0.252734 -0.061022 6.88701
249 1 -0.475772 0.0965107 5.93432
250 1 -0.615331 0.180774 5.04138
251 1 -0.6514 0.260621 4.11253
252 1 -0.668781 0.307149 3.16494
253 1 -0.804816 0.427165 2.2822
254 1 -0.859743 0.759739 1.41556
255 1 -0.80328 0.994707 0.488384
256 1 -0.42684 1.35478 -0.269091
257 1 -0.000107405 1.61264 -1.09643
258 1 0.369893 1.8018 -1.97619
259 1 0.748259 1.97886 -2.82676
260 1 1.08346 2.23643 -3.69122
261 1 1.57352 2.45992 -4.43481
262 1 2.01578 2.90962 -5.17553
263 1 2.59692 3.16067 -5.79023
264 1 3.21159 3.54763 -6.4195
265 1 3.95539 3.81333 -6.98421
266 1 4.62406 3.98733 -7.64466
267 1 5.22154 4.19936 -8.39982
268 1 5.85693 4.21463 -9.02078
269 1 6.60823 4.01225 -9.59204
270 1 7.42818 3.86065 -9.99195
271 1 8.31624 3.95957 -10.2737
272 1 9.19705 4.08738 -10.7025
273 1 10.0882 4.03309 -11.022
274 1 11.0384 4.0961 -11.1909
275 1 11.9624 4.0679 -11.3087
276 1 12.8475 3.96112 -11.2366
277 1 13.7675 3.91082 -11.0735
278 1 14.6224 3.84967 -10.6963
279 1 15.4471 3.86148 -10.2339
280 1 16.3452 3.81703 -10.0121
281 1 17.2839 3.8124 -9.9633
282 1 18.1658 3.86852 -9.89254
283 1 19.0829 3.94872 -9.63871
284 1 19.9777 3.98312 -9.34017
285 1 20.8886 3.75239 -9.09265
286 1 21.846 3.56261 -9.00847
287 1 22.7031 3.20389 -8.99861
288 1 23.5969 2.95597 -9.00475
289 1 24.463 2.64383 -8.66771
290 1 25.3042 2.28266 -8.42538
291 1 26.1567 2.07507 -8.22521
292 1 27.1077 1.90275 -8.09086
293 1 28.003 1.60318 -7.99732
294 1 28.9153 1.23136 -7.86069
295 1 29.796 0.965519 -7.66556
296 1 30.579 0.616073 -7.34205
297 1 31.3186 0.205543 -6.87327
298 1 32.1387 -0.0516929 -6.41292
299 1 32.9107 -0.404663 -6.00865
300 1 33.5586 -0.931628 -5.60692
301 1 34.329 -1.49472 -5.36543
302 1 35.0982 -1.98833 -5.26424
303 1 35.989 -2.4334 -5.18026
304 1 36.7324 -3.05677 -4.92503
305 1 37.4474 -3.59735 -4.7433
306 1 38.1018 -4.23686 -4.48431
307 1 38.718 -4.94849 -4.23754
308 1 39.2806 -5.58922 -3.92649
309 1 39.924 -6.20846 -3.71166
310 1 40.5352 -6.89717 -3.53815
311 1 41.1309 -7.59685 -3.29838
312 1 41.6499 -8.24616 -2.91479
313 1 42.179 -8.919 -2.54818
314 1 42.6882 -9.60378 -2.17788
315 1 43.0665 -10.343 -1.79399
316 1 43.5385 -11.0811 -1.50077
317 1 44.1433 -11.7661 -1.26689
318 1 44.8663 -12.3761 -1.2051
319 1 45.6558 -12.8515 -1.29812
320 1 46.5468 -13.1844 -1.29982
321 1 47.4682 -13.4544 -1.2919
322 1 48.4142 -13.561 -1.24263
323 1 49.3564 -13.382 -1.30861
324 1 50.2328 -13.2488 -1.39246
325 1 51.0967 -13.0645 -1.66899
326 1 51.9434 -12.8997 -2.01221
327 1 52.7515 -12.5441 -2.41329
328 1 53.5355 -12.1027 -2.7258
329 1 54.2608 -11.7285 -3.16846
330 1 54.944 -11.3381 -3.62617
331 1 55.5418 -10.9758 -4.20017
332 1 56.1019 -10.4542 -4.72178
333 1 56.7848 -9.87018 -5.15845
334 1 57.3873 -9.36914 -5.67098
335 1 58.0624 -8.89135 -6.21712
336 1 58.6788 -8.30404 -6.68608
337 1 59.3349 -7.92442 -7.20887
338 1 59.9078 -7.44195 -7.73837
339 1 60.4341 -6.79344 -8.21672
340 1 61.014 -6.25728 -8.69899
341 1 61.5668 -5.63308 -9.14586
342 1 62.1083 -5.05214 -9.73617
343 1 62.7727 -4.53066 -10.1291
344 1 63.4375 -3.96382 -10.383
345 1 64.194 -3.40447 -10.6567
346 1 64.8831 -2.886 -10.9852
347 1 65.676 -2.55982 -11.3321
348 1 66.4085 -2.07278 -11.6243
349 1 67.046 -1.4284 -11.7319
350 1 67.5386 -0.657565 -11.8683
351 1 67.9678 0.168094 -11.9717
352 1 68.3195 1.01018 -12.1083
353 1 68.5435 1.92066 -12.0942
354 1 68.597 2.83682 -11.9959
355 1 68.5698 3.80056 -11.8379
356 1 68.4979 4.6994 -11.7285
357 1 68.4077 5.64739 -11.6233
358 1 68.2387 6.49968 -11.3816
359 1 67.9728 7.38924 -11.1169
360 1 67.6944 8.2818 -10.9014
361 1 67.3068 9.14773 -10.8378
362 1 66.9544 10.0187 -10.7049
363 1 66.4849 10.7793 -10.4492
364 1 66.0741 11.5898 -10.3367
365 1 65.5233 12.4042 -10.2765
366 1 65.0652 13.1932 -10.2233
367 1 64.5092 13.9511 -10.1541
368 1 63.9231 14.6499 -10.0495
369 1 63.3073 15.3452 -9.99733
370 1 62.5771 15.9249 -9.98304
371 1 61.6971 16.4177 -9.95415
372 1 60.893 16.8841 -9.92681
373 1 60.0412 17.2279 -9.94001
374 1 59.1496 17.4604 -10.0084
375 1 58.4141 18.0079 -10.0416
376 1 57.6505 18.5845 -10.0257
377 1 56.9372 19.1815 -9.79034
378 1 56.1762 19.6771 -9.67318
379 1 55.4332 20.2341 -9.71997
380 1 54.5721 20.6247 -9.86177
381 1 53.795 21.1829 -10.0163
382 1 53.1364 21.8692 -10.1732
383 1 52.6083 22.6654 -10.3823
384 1 52.1702 23.428 -10.6735
385 1 51.7836 24.3034 -10.9098
386 1 51.3671 25.1564 -11.0158
387 1 51.0595 26.0409 -11.0601
388 1 50.8337 26.9296 -11.2257
389 1 50.8804 27.8038 -11.4654
390 1 50.9592 28.7093 -11.5718
391 1 51.2895 29.6091 -11.4264
392 1 51.8408 30.4083 -11.2816
393 1 52.4815 31.0649 -11.1503
394 1 53.0584 31.7811 -10.9414
395 1 53.5947 32.4395 -10.6063
396 1 54.1227 33.1553 -10.256
397 1 54.697 33.8474 -9.84759
398 1 55.1747 34.5136 -9.39285
399 1 55.5206 35.2079 -8.90781
400 1 55.7527 35.9008 -8.31792
401 1 55.8824 36.6012 -7.72309
402 1 55.9557 37.2915 -7.08387
403 1 56.2608 38.0898 -6.53963
404 1 56.5252 38.922 -6.09409
405 1 56.671 39.6979 -5.52037
406 1 56.9333 40.4219 -4.9656
407 1 57.4228 41.0325 -4.44931
408 1 58.055 41.6086 -4.03319
409 1 58.7126 42.1999 -3.7164
410 1 59.3707 42.792 -3.30585
411 1 59.9899 43.3781 -3.00191
412 1 60.657 43.9017 -2.576
413 1 61.2679 44.5399 -2.21791
414 1 61.7871 45.3174 -2.06993
415 1 62.3413 46.03 -1.80803
416 1 62.9259 46.719 -1.51496
417 1 63.5114 47.4652 -1.44133
418 1 64.1693 48.1824 -1.40301
419 1 64.8912 48.7459 -1.40363
420 1 65.7448 49.1181 -1.15069
421 1 66.5413 49.3592 -0.711199
422 1 67.379 49.5438 -0.314047
423 1 68.2538 49.5202 -0.00184188
424 1 69.1133 49.4737 0.402113
425 1 69.9715 49.4024 0.85681
426 1 70.7102 49.1196 1.35224
427 1 71.3501 48.7132 1.95844
428 1 71.978 48.2217 2.40666
429 1 72.6129 47.7017 2.87704
430 1 73.3458 47.3305 3.29854
431 1 74.0725 46.9402 3.71581
432 1 74.8352 46.6332 4.24003
433 1 75.5077 46.2017 4.65809
434 1 76.1502 45.6613 5.03114
435 1 76.7835 45.0415 5.35268
436 1 77.5296 44.4902 5.45194
437 1 78.3247 43.9695 5.62825
438 1 79.2115 43.7158 5.80913
439 1 80.041 43.3644 5.70224
440 1 80.8913 42.8527 5.61159
441 1 81.6743 42.367 5.41304
442 1 82.4856 41.9704 5.08331