ITEM: TIMESTEP
1280000
ITEM: NUMBER OF ATOMS
512
ITEM: BOX BOUNDS mm mm mm
-2.5600000000000000e+02 2.5600000000000000e+02
-2.5600000000000000e+02 2.5600000000000000e+02
-2.5600000000000000e+02 2.5600000000000000e+02
ITEM: ATOMS id type x y z
1 1 -83.4741 2.58425 9.33468
2 1 -84.1695 3.15394 9.01901
3 1 -84.3159 3.33949 9.94419
4 1 -84.681 3.26374 10.8497
5 1 -85.4653 3.79547 10.6705
6 1 -85.3298 4.61991 10.2387
7 1 -84.6994 5.12772 9.81526
8 1 -83.8366 4.72893 9.71305
9 1 -83.2905 5.05961 9.09933
10 1 -83.0033 5.39805 8.22279
11 1 -83.5748 4.73894 7.87698
12 1 -84.3199 5.02312 7.29673
13 1 -84.7866 5.88592 7.23874
14 1 -85.4246 5.68789 7.9695
15 1 -85.5242 4.77354 8.13237
16 1 -86.0774 5.11401 7.41694
17 1 -86.6313 4.46939 7.08437
18 1 -86.6533 4.4306 6.19193
19 1 -86.8105 3.64743 5.74862
20 1 -86.5574 4.37125 5.14477
21 1 -87.4323 4.10394 4.98858
22 1 -87.4798 4.35223 4.08093
23 1 -86.9555 4.84931 3.51364
24 1 -86.6303 5.51324 4.0936
25 1 -86.0037 6.11632 3.80699
26 1 -85.67 6.563 4.61505
27 1 -86.1251 6.07313 5.25847
28 1 -85.48 6.09003 5.87864
29 1 -86.0177 6.26156 6.60551
30 1 -86.6741 6.42338 7.22136
31 1 -86.1926 7.12072 7.62457
32 1 -85.629 7.84527 7.65446
33 1 -86.0111 8.68206 7.48974
34 1 -85.781 9.6377 7.48284
35 1 -86.3518 9.73381 6.7689
36 1 -86.1396 9.36434 5.95219
37 1 -85.3927 9.34684 5.42064
38 1 -84.9763 8.50497 5.44271
39 1 -84.0511 8.55966 5.38827
40 1 -83.1594 8.28921 5.27743
41 1 -83.05 8.5522 4.383
42 1 -83.8598 8.19685 4.02708
43 1 -84.1906 9.03183 3.89332
44 1 -84.0129 9.66375 3.1901
45 1 -84.7961 10.1543 3.00156
46 1 -85.0024 9.31897 2.64691
47 1 -84.4502 9.61556 2.01659
48 1 -85.1798 10.1874 1.98663
49 1 -84.917 10.3626 1.07348
50 1 -85.0355 11.2753 1.04308
51 1 -84.4072 11.1576 1.68203
52 1 -84.3151 12.1035 1.96383
53 1 -84.3114 12.9002 1.5371
54 1 -83.3632 12.99 1.79172
55 1 -83.2228 13.7445 1.20501
56 1 -82.5517 13.0505 1.21756
57 1 -81.8876 12.3913 1.48516
58 1 -81.1672 12.2598 2.05581
59 1 -80.2471 12.422 2.16172
60 1 -80.2763 12.6182 3.06153
61 1 -80.2607 13.2941 3.78871
62 1 -80.1387 13.9165 4.49976
63 1 -80.6619 13.49 5.21925
64 1 -81.3759 13.0597 4.7855
65 1 -81.7655 13.0501 3.99179
66 1 -81.807 14.0594 4.1033
67 1 -81.4451 14.4795 3.32758
68 1 -80.9382 14.8191 4.03593
69 1 -80.1423 15.1785 4.35253
70 1 -79.5937 15.4214 5.10487
71 1 -79.1972 16.0283 5.70017
72 1 -78.3925 15.8883 6.22205
73 1 -78.2405 15.0059 6.38673
74 1 -77.554 14.3831 6.48865
75 1 -77.051 14.3603 7.30494
76 1 -76.7983 14.8198 8.05567
77 1 -75.9578 15.1841 7.96197
78 1 -76.0741 16.0279 7.46865
79 1 -76.4215 16.1892 8.38807
80 1 -75.5204 15.9805 8.4866
81 1 -75.1462 16.8334 8.89409
82 1 -74.9444 17.6563 8.45433
83 1 -74.9268 18.3142 7.79188
84 1 -74.3889 18.8507 7.24294
85 1 -75.1971 18.5932 6.72048
86 1 -75.3322 19.1232 5.92569
87 1 -74.9007 19.809 5.38028
88 1 -74.0919 19.7363 4.89998
89 1 -73.1271 19.7027 4.6474
90 1 -72.4982 19.032 4.4169
91 1 -72.1352 18.5835 3.62628
92 1 -72.5061 19.2609 3.10688
93 1 -72.1746 19.5497 2.30393
94 1 -72.5306 20.0647 1.64088
95 1 -72.4655 20.8453 2.15695
96 1 -71.6004 21.126 1.97996
97 1 -71.3161 21.9797 2.42931
98 1 -71.1679 22.1228 3.32423
99 1 -70.2586 22.1075 3.60718
100 1 -70.4541 21.4774 2.97768
101 1 -70.6753 20.6398 3.42294
102 1 -70.0468 20.1322 3.88185
103 1 -70.0241 19.1836 3.95822
104 1 -69.4143 18.6955 3.4318
105 1 -68.827 18.8183 2.72078
106 1 -68.7658 17.9357 2.27757
107 1 -68.2274 17.9607 1.54686
108 1 -67.4923 17.3289 1.44421
109 1 -67.952 17.2258 0.640947
110 1 -67.4756 17.2167 -0.121183
111 1 -66.8276 17.8848 -0.2932
112 1 -66.0553 18.3041 -0.62392
113 1 -65.6162 17.5622 -0.254712
114 1 -64.8848 17.7357 0.278337
115 1 -65.1615 18.3859 0.954549
116 1 -64.6462 18.39 1.69185
117 1 -63.8763 18.8985 1.57519
118 1 -63.3053 19.5213 1.31324
119 1 -62.8757 18.7223 1.52323
120 1 -62.6664 17.8622 1.29049
121 1 -62.0108 17.3712 0.82436
122 1 -61.4009 17.9701 0.516981
123 1 -60.503 18.1112 0.38617
124 1 -60.5818 18.406 -0.461509
125 1 -60.4784 17.4822 -0.676456
126 1 -60.8953 16.8933 -1.23496
127 1 -61.5291 16.6886 -0.534034
128 1 -62.0043 16.1321 -1.10995
129 1 -62.3655 15.3412 -1.53416
130 1 -62.6743 15.968 -2.20238
131 1 -62.4537 15.5342 -3.02079
132 1 -62.1676 15.0084 -3.74589
133 1 -61.5251 14.5879 -3.19444
134 1 -60.7381 14.8457 -2.74643
135 1 -60.1903 15.4816 -2.30643
136 1 -59.6916 14.7847 -1.96972
137 1 -59.6054 15.2635 -1.09583
138 1 -59.2503 15.2845 -0.151264
139 1 -59.6601 14.8605 0.59496
140 1 -59.3953 15.3779 1.29008
141 1 -58.6613 15.2375 1.88466
142 1 -58.1264 14.6384 2.37641
143 1 -57.3083 14.2539 2.24978
144 1 -57.7739 13.5403 1.90923
145 1 -57.764 13.7354 0.902691
146 1 -56.9625 14.309 0.817574
147 1 -56.212 14.656 0.380943
148 1 -55.426 14.4211 -0.100376
149 1 -55.4695 14.9536 -0.881902
150 1 -55.4791 14.3754 -1.62852
151 1 -54.9691 14.4492 -2.36015
152 1 -54.4654 13.9413 -2.99601
153 1 -54.4609 14.3013 -3.83244
154 1 -53.9715 14.7957 -4.40434
155 1 -53.1613 15.2983 -4.21637
156 1 -52.3617 15.0746 -3.76335
157 1 -52.0758 15.8708 -3.47186
158 1 -51.5325 16.5445 -3.8665
159 1 -50.6639 16.5735 -4.22042
160 1 -49.954 16.2078 -3.77406
161 1 -50.4098 16.3958 -3.00624
162 1 -50.2489 16.0733 -2.08922
163 1 -50.3242 17.0494 -2.16343
164 1 -50.5011 17.3826 -3.0427
165 1 -49.7546 18.005 -3.15276
166 1 -49.0778 17.5651 -3.67003
167 1 -48.5087 17.6282 -2.92462
168 1 -47.7138 17.4093 -3.38606
169 1 -47.1717 16.7286 -3.07872
170 1 -46.5507 15.9763 -2.99832
171 1 -45.6433 16.3756 -3.0172
172 1 -45.7665 16.0328 -3.87204
173 1 -45.5105 15.4044 -4.49585
174 1 -44.6497 15.0639 -4.6118
175 1 -44.4924 15.4498 -5.46597
176 1 -44.6986 16.2106 -4.8849
177 1 -44.372 17.0236 -5.13991
178 1 -43.7168 17.3641 -5.75411
179 1 -43.1069 17.8582 -6.29336
180 1 -42.2519 17.819 -5.88002
181 1 -41.2682 17.7129 -5.8833
182 1 -40.7442 16.8526 -6.01377
183 1 -40.3107 16.1181 -6.42867
184 1 -40.1394 16.9726 -6.7874
185 1 -39.9945 16.9472 -7.75342
186 1 -39.2758 16.3691 -8.00593
187 1 -38.4409 16.1291 -7.63935
188 1 -37.5923 16.1871 -7.31699
189 1 -36.7653 15.8477 -7.52343
190 1 -35.8734 15.7385 -7.29695
191 1 -35.4272 14.919 -7.27344
192 1 -34.738 15.2458 -6.67745
193 1 -34.4316 15.2305 -5.80415
194 1 -33.552 14.9843 -6.01843
195 1 -32.6706 15.4293 -5.86617
196 1 -32.9838 15.8568 -5.1351
197 1 -32.2641 15.6522 -4.49225
198 1 -31.4291 15.308 -4.6214
199 1 -30.72 15.4081 -4.02213
200 1 -30.306 15.5899 -4.88193
201 1 -30.2464 14.6902 -4.73948
202 1 -29.5241 14.9432 -5.28068
203 1 -28.8799 15.226 -5.90566
204 1 -29.4674 15.8113 -6.34342
205 1 -29.2864 16.3384 -7.13084
206 1 -28.9827 17.2263 -7.16222
207 1 -28.2473 16.6986 -7.63988
208 1 -27.7159 16.2896 -8.31544
209 1 -26.8076 16.0059 -8.21894
210 1 -26.5742 15.1175 -8.07937
211 1 -25.8338 15.4979 -8.49775
212 1 -25.4868 15.804 -7.67893
213 1 -24.6713 15.8015 -7.2023
214 1 -24.6132 16.3181 -6.38155
215 1 -25.0441 17.1535 -6.62928
216 1 -24.8244 17.2108 -5.74067
217 1 -25.2506 17.1083 -4.90162
218 1 -25.3268 18.0456 -4.86026
219 1 -24.8192 18.8491 -4.7922
220 1 -24.0407 18.7976 -5.31224
221 1 -23.6163 19.2263 -5.99364
222 1 -22.8445 18.8484 -5.57256
223 1 -22.3629 19.1767 -6.36885
224 1 -21.7794 19.8985 -6.76483
225 1 -20.9363 20.208 -6.82347
226 1 -20.0549 20.3678 -6.47549
227 1 -19.7883 19.8906 -5.76904
228 1 -18.8746 19.6386 -5.67833
229 1 -18.1626 20.2593 -5.72843
230 1 -17.3663 20.5152 -5.38707
231 1 -16.5443 20.6863 -4.95312
232 1 -16.1625 21.341 -5.4191
233 1 -16.1564 21.7417 -6.29964
234 1 -15.325 22.0923 -6.46902
235 1 -15.3487 22.4504 -7.30865
236 1 -14.5357 22.9278 -7.18331
237 1 -13.5549 22.6562 -7.35844
238 1 -13.2822 23.5139 -7.68934
239 1 -12.4134 23.3627 -7.38911
240 1 -11.6405 23.8267 -7.12326
241 1 -11.9039 24.575 -7.70627
242 1 -11.3424 25.2222 -8.04027
243 1 -10.9157 25.8631 -8.63759
244 1 -10.9585 26.7728 -8.85536
245 1 -10.7117 26.5198 -9.69984
246 1 -10.7333 25.6132 -9.91251
247 1 -10.2521 24.7903 -9.99961
248 1 -9.49264 25.2404 -10.2744
249 1 -8.81619 24.9708 -9.69242
250 1 -8.04003 24.594 -9.96895
251 1 -7.19133 24.5463 -9.42691
252 1 -6.79239 24.1038 -10.1283
253 1 -6.23643 24.1747 -10.8625
254 1 -5.72281 23.6972 -10.256
255 1 -5.99485 22.8518 -10.5975
256 1 -5.24055 22.3359 -10.3906
257 1 -4.79278 21.7277 -9.72882
258 1 -4.94711 21.6086 -8.78805
259 1 -5.84746 21.7639 -8.54663
260 1 -6.50274 22.3997 -8.91248
261 1 -5.79819 22.9728 -8.65708
262 1 -5.84 22.5823 -7.80723
263 1 -5.60339 22.5326 -6.92289
264 1 -4.66166 22.477 -7.10202
265 1 -4.31055 23.2451 -6.66526
266 1 -3.63996 22.5665 -6.52963
267 1 -3.29844 21.9591 -5.90346
268 1 -3.08641 21.8205 -4.94607
269 1 -3.1034 20.9062 -4.65171
270 1 -3.21315 20.0139 -4.3273
271 1 -3.21436 19.1952 -3.72289
272 1 -2.33779 18.8993 -3.79558
273 1 -1.8298 18.1332 -4.05351
274 1 -1.41061 17.5922 -4.69417
275 1 -0.788106 17.0489 -4.21801
276 1 -0.180722 16.2758 -4.26699
277 1 -0.00244511 16.4686 -5.24535
278 1 0.807906 16.0509 -5.43048
279 1 0.818299 16.4279 -6.24582
280 1 0.796254 16.8439 -7.08806
281 1 1.65341 16.354 -7.06901
282 1 2.54403 15.9058 -7.13001
283 1 2.82562 16.2737 -7.92802
284 1 3.42865 16.9194 -7.61616
285 1 4.16898 16.788 -7.02525
286 1 4.74714 17.1941 -6.42598
287 1 5.02008 16.3112 -6.30466
288 1 5.72373 15.813 -6.60092
289 1 6.48313 16.3851 -6.51634
290 1 7.34734 16.2961 -6.7495
291 1 8.01773 15.6543 -6.5866
292 1 7.90799 15.7464 -5.67669
293 1 8.13738 15.0702 -5.01814
294 1 8.9261 15.4341 -4.53436
295 1 9.14306 16.2372 -4.02074
296 1 8.43777 16.8162 -3.78937
297 1 7.51917 16.6847 -3.54058
298 1 7.3436 16.2881 -2.7211
299 1 8.16969 16.3443 -2.27034
300 1 8.60939 16.2124 -1.47167
301 1 9.12603 17.0194 -1.39303
302 1 9.48982 16.5839 -0.624113
303 1 10.3579 16.3262 -0.930843
304 1 10.9177 16.4956 -1.71079
305 1 11.3453 15.8293 -1.18753
306 1 11.2449 14.9055 -1.34789
307 1 10.6146 14.6205 -0.665753
308 1 11.2202 13.9922 -0.295687
309 1 11.8815 14.0188 -0.96442
310 1 12.86 13.8971 -0.896677
311 1 13.361 13.7249 -1.68323
312 1 13.7774 14.4132 -2.12635
313 1 13.8477 15.275 -1.71551
314 1 14.5594 14.8103 -1.29467
315 1 14.4777 13.8705 -1.35991
316 1 14.8506 13.8961 -2.23688
317 1 15.6103 13.9945 -2.82414
318 1 15.4345 14.6696 -2.20009
319 1 15.6016 15.637 -2.2066
320 1 16.1523 16.3506 -1.98878
321 1 16.7486 17.0782 -1.7376
322 1 17.5901 16.9985 -1.26127
323 1 18.2313 16.4256 -0.97592
324 1 17.5321 16.1701 -0.465649
325 1 17.716 15.7305 0.329779
326 1 18.4883 15.364 0.676078
327 1 19.2923 15.1077 0.999251
328 1 19.8354 14.3941 1.23023
329 1 20.7254 14.1281 1.36246
330 1 21.3241 14.7735 0.955766
331 1 22.0109 14.7812 0.370306
332 1 22.811 14.3994 0.550726
333 1 23.5385 13.8501 0.883887
334 1 24.4533 13.9569 1.08198
335 1 24.2065 14.1228 1.95668
336 1 24.5184 14.5799 2.74535
337 1 25.3967 14.7903 2.6246
338 1 26.006 14.0702 2.54931
339 1 25.9395 13.9908 1.64104
340 1 26.6693 13.4407 1.56699
341 1 27.5318 13.9025 1.67768
342 1 27.4072 14.791 1.92891
343 1 27.0771 15.4013 2.56327
344 1 26.9742 15.6603 3.45561
345 1 26.8947 16.5898 3.45544
346 1 26.5642 17.1538 4.14839
347 1 25.7989 17.234 3.64667
348 1 25.6296 17.9418 4.2231
349 1 26.1602 18.7246 4.24587
350 1 25.8165 19.3778 4.81732
351 1 24.9819 19.9399 4.82122
352 1 24.1277 19.7054 4.93846
353 1 23.9366 19.4007 4.0326
354 1 24.097 19.2747 3.12096
355 1 24.3291 19.2868 2.16427
356 1 24.7953 18.8933 1.48048
357 1 25.345 18.9724 0.765838
358 1 26.1844 18.5314 0.536613
359 1 26.5458 17.784 1.01313
360 1 27.4238 17.9525 1.36714
361 1 28.2316 17.4057 1.48765
362 1 28.7196 17.25 2.25066
363 1 29.025 16.3768 2.25598
364 1 29.2595 16.082 1.38474
365 1 30.0629 15.6597 1.56925
366 1 30.1745 15.944 2.48357
367 1 30.5794 16.4904 3.19216
368 1 31.1236 16.0498 3.93729
369 1 30.344 16.2762 4.44156
370 1 30.2055 16.7013 5.26313
371 1 29.9863 17.2627 4.57265
372 1 30.9003 17.304 4.50607
373 1 31.4238 17.9604 4.15915
374 1 31.562 18.9479 3.98353
375 1 30.8442 19.341 3.57172
376 1 31.011 20.0545 2.96879
377 1 31.2018 20.9294 3.21192
378 1 32.113 21.1484 3.17454
379 1 32.9712 21.5444 3.07877
380 1 33.5347 22.2964 2.95966
381 1 34.2369 22.7747 3.40642
382 1 35.0394 22.7756 2.97481
383 1 35.4507 21.9978 2.61794
384 1 35.7754 22.1374 1.76058
385 1 36.4568 21.5511 2.02749
386 1 37.3579 21.3456 1.97358
387 1 37.0359 21.3645 2.94944
388 1 37.5993 21.1397 3.67243
389 1 37.2767 21.8981 4.0435
390 1 37.176 21.3338 4.77931
391 1 37.6833 21.6149 5.49826
392 1 38.446 21.4631 5.97208
393 1 39.231 21.9143 5.67295
394 1 40.0712 22.2451 5.85452
395 1 40.1723 21.3445 5.72586
396 1 39.7943 20.7828 5.05916
397 1 40.2594 19.9661 4.95805
398 1 40.8757 20.5721 5.33183
399 1 41.4145 20.1757 5.97873
400 1 41.843 20.2239 6.8042
401 1 41.9578 19.3933 6.41903
402 1 42.2789 18.8723 7.11882
403 1 41.5827 18.4752 7.597
404 1 40.8602 17.9507 7.32898
405 1 40.7486 18.5881 6.59476
406 1 41.227 17.9876 6.06365
407 1 42.0657 18.1394 5.7741
408 1 42.7858 18.2871 6.35096
409 1 42.7137 17.3985 6.66087
410 1 42.571 16.5753 7.08178
411 1 43.1429 16.8373 7.79969
412 1 43.849 16.4199 8.29427
413 1 43.3103 16.8614 8.94245
414 1 44.069 17.292 9.27761
415 1 44.7391 16.8063 9.80983
416 1 45.4721 16.231 9.66252
417 1 45.3522 15.5131 10.2117
418 1 46.2539 15.3924 10.0917
419 1 47.0039 14.9107 10.3535
420 1 47.2848 14.0641 10.0913
421 1 46.5744 13.5454 10.3818
422 1 46.2194 13.1094 9.70017
423 1 46.4186 12.5277 9.04384
424 1 45.9162 11.7415 9.15842
425 1 46.7813 11.4004 9.399
426 1 47.5693 11.9991 9.36792
427 1 48.2363 11.7994 8.64762
428 1 48.3991 11.2856 7.81333
429 1 49.2792 11.2846 7.51836
430 1 50.0627 11.7677 7.55096
431 1 51.0174 11.4646 7.46191
432 1 51.9416 11.1734 7.21071
433 1 51.6285 10.4425 7.66386
434 1 52.0603 9.70508 8.12742
435 1 52.8755 9.37153 8.53397
436 1 53.2746 10.0809 8.94115
437 1 53.5192 9.81338 9.8442
438 1 52.9888 10.3617 10.3776
439 1 53.1292 10.4122 11.2873
440 1 53.7292 11.1633 11.4657
441 1 53.637 11.4903 12.4253
442 1 54.2642 10.9159 12.7476
443 1 54.4045 10.2308 13.3957
444 1 54.8102 9.91632 14.1585
445 1 54.9496 9.17363 14.6694
446 1 55.5238 9.28744 15.4126
447 1 56.2201 9.74114 15.9873
448 1 56.7968 9.09762 16.3565
449 1 57.5371 8.60429 16.7063
450 1 57.0861 7.82657 16.9758
451 1 57.7028 7.51943 16.3269
452 1 58.4605 8.00273 16.5952
453 1 58.6962 8.70961 16.0053
454 1 59.6096 8.68634 16.0852
455 1 59.7297 7.73706 16.1911
456 1 60.1062 7.65478 15.33
457 1 60.0369 6.92254 14.7839
458 1 59.8286 6.6652 15.6685
459 1 60.2101 5.92504 15.2091
460 1 60.7311 5.19868 14.8747
461 1 60.7305 4.40793 14.4692
462 1 61.5854 4.42719 14.0289
463 1 62.1045 3.61702 13.9123
464 1 62.7108 3.4482 14.5803
465 1 62.3929 2.80724 15.1859
466 1 62.3753 2.3906 14.4023
467 1 62.8426 2.20651 13.6432
468 1 62.3312 1.47337 13.7756
469 1 61.7296 0.988869 13.1919
470 1 62.1769 0.305564 12.6981
471 1 62.5579 -0.502557 12.3372
472 1 62.1344 -1.26816 11.8137
473 1 62.4378 -1.88897 11.1698
474 1 62.1986 -2.22535 10.2802
475 1 62.8132 -1.49694 10.1311
476 1 63.5455 -0.895119 10.358
477 1 64.3924 -1.12112 10.644
478 1 64.5072 -2.08274 10.6655
479 1 64.1411 -2.7529 11.2103
480 1 64.7267 -3.43509 10.8868
481 1 64.6704 -4.32794 11.1176
482 1 64.9272 -5.28376 11.2075
483 1 65.5133 -5.50151 11.9794
484 1 66.3863 -5.0392 11.8935
485 1 66.6555 -4.64726 12.7245
486 1 67.4792 -5.01321 13.1945
487 1 66.9442 -5.48092 13.9157
488 1 66.4769 -5.42309 14.762
489 1 66.4105 -5.68375 15.6569
490 1 66.6408 -4.80772 15.7452
491 1 67.3982 -4.99236 15.1985
492 1 67.386 -4.62842 14.3204
493 1 68.0668 -3.9441 14.3639
494 1 68.2118 -4.40547 13.5773
495 1 68.5904 -4.48151 12.6926
496 1 67.7739 -4.70803 12.2231
497 1 67.8037 -4.31131 11.3927
498 1 68.2008 -3.48221 11.1931
499 1 69.1074 -3.30718 10.8649
500 1 68.9441 -4.04236 10.2429
501 1 68.7632 -3.09903 9.97539
502 1 68.7166 -2.6829 9.13677
503 1 68.7818 -2.67542 8.18829
504 1 68.9039 -3.06452 7.34711
505 1 69.7368 -3.45844 7.2909
506 1 70.5719 -3.16717 7.76748
507 1 71.2878 -3.40731 7.24771
508 1 71.4414 -2.5665 6.97455
509 1 71.5674 -3.18439 6.23733
510 1 72.2637 -3.80362 6.06503
511 1 72.2364 -4.4931 5.44866
512 1 73.0713 -4.79324 5.68945
ITEM: TIMESTEP
1290000
ITEM: NUMBER OF ATOMS
512
ITEM: BOX BOUNDS mm mm mm
-2.5600000000000000e+02 2.5600000000000000e+02
-2.5600000000000000e+02 2.5600000000000000e+02
-2.5600000000000000e+02 2.5600000000000000e+02
ITEM: ATOMS id type x y z
1 1 -86.8289 0.993359 0.130545
2 1 -87.1373 1.2213 0.99011
3 1 -86.3359 0.971814 1.36763
4 1 -85.8941 1.78532 1.3713
5 1 -85.5829 2.24434 0.615989
6 1 -86.2995 2.78474 0.287388
7 1 -86.5042 3.44369 0.923968
8 1 -85.6617 3.0795 1.21077
9 1 -85.4046 3.70658 1.85663
10 1 -85.0311 4.43453 2.39529
11 1 -85.0086 5.37436 2.46636
12 1 -84.4649 5.70022 3.10873
13 1 -85.0901 5.52969 3.81684
14 1 -84.8957 6.41181 3.88028
15 1 -85.5211 7.01807 4.20305
16 1 -85.7342 7.65814 3.5784
17 1 -86.5994 7.58349 3.78495
18 1 -87.275 7.01884 4.10358
19 1 -87.674 7.59002 4.75148
20 1 -87.8996 7.81344 5.67747
21 1 -88.3754 7.65862 6.49775
22 1 -87.556 7.13763 6.47596
23 1 -87.7037 7.31474 7.37205
24 1 -87.3239 8.18622 7.46435
25 1 -86.9432 8.60751 6.71382
26 1 -86.751 9.35482 6.16207
27 1 -86.3673 10.0364 5.59136
28 1 -85.9401 10.0075 6.43194
29 1 -85.3142 10.1509 5.77068
30 1 -84.7211 9.95403 5.17178
31 1 -84.351 10.4833 5.88643
32 1 -83.8984 11.2864 6.20168
33 1 -84.3921 11.3864 6.95408
34 1 -84.6016 12.2734 7.12341
35 1 -83.9759 13.0272 7.07834
36 1 -83.5368 13.6581 6.51917
37 1 -83.4344 14.5167 6.24412
38 1 -84.2553 14.9127 6.44281
39 1 -84.4752 15.4232 5.62187
40 1 -83.5754 15.2548 5.424
41 1 -83.0328 15.953 5.17223
42 1 -83.5296 16.6615 5.51754
43 1 -84.1158 16.9088 4.8138
44 1 -84.8251 16.2318 4.9512
45 1 -84.1067 15.7008 4.55595
46 1 -84.2964 15.7618 3.62375
47 1 -83.4081 15.4617 3.6802
48 1 -82.7018 15.5854 3.0626
49 1 -82.0452 15.1184 3.56496
50 1 -81.744 15.0707 4.44256
51 1 -81.366 14.2578 4.20493
52 1 -81.7945 13.6501 3.63703
53 1 -81.5268 14.1603 2.87053
54 1 -80.6445 14.1997 2.50935
55 1 -79.8382 14.0433 2.10555
56 1 -79.531 13.9155 2.95077
57 1 -79.1128 13.2787 3.43299
58 1 -78.2134 13.2735 3.23011
59 1 -77.3264 12.9999 3.4043
60 1 -77.2241 12.7218 4.25861
61 1 -77.5178 13.0297 5.0386
62 1 -77.3784 13.206 5.93557
63 1 -76.641 12.6282 5.72866
64 1 -76.6836 12.456 6.62108
65 1 -75.8577 12.9341 6.45582
66 1 -75.1499 13.5338 6.24014
67 1 -75.981 13.8576 5.8608
68 1 -76.5794 14.5033 6.06684
69 1 -77.181 15.2982 6.01254
70 1 -76.9796 16.1234 5.59791
71 1 -76.5844 16.7297 5.02622
72 1 -75.8626 16.3675 4.68758
73 1 -75.5433 17.2516 4.54668
74 1 -75.2054 18.0452 4.33659
75 1 -75.5392 18.97 4.30178
76 1 -75.1979 19.025 5.1487
77 1 -74.4448 18.6009 4.82349
78 1 -74.0128 18.7944 3.99653
79 1 -73.2689 18.6958 3.43852
80 1 -73.169 18.8675 2.49867
81 1 -72.278 18.9751 2.22607
82 1 -72.1109 19.0836 3.15401
83 1 -71.2114 19.3424 3.43503
84 1 -70.5112 19.6889 3.87005
85 1 -69.8226 19.8061 3.24748
86 1 -69.6362 20.7266 3.48879
87 1 -69.125 21.1316 2.79528
88 1 -68.6859 20.3235 2.48051
89 1 -68.5393 19.4231 2.89502
90 1 -67.7561 19.2338 2.24336
91 1 -67.3722 19.9916 2.50986
92 1 -66.7752 20.7392 2.43471
93 1 -67.0984 21.5205 1.92065
94 1 -67.5918 22.2502 2.22944
95 1 -67.899 23.1119 2.29416
96 1 -68.3078 23.7642 1.70242
97 1 -67.5015 24.2421 1.59209
98 1 -66.8431 23.6519 1.30686
99 1 -66.4184 23.0121 0.677413
100 1 -66.3067 22.1428 1.01405
101 1 -65.8314 21.3028 1.1116
102 1 -65.2001 20.7083 1.53644
103 1 -64.5645 20.9974 2.23843
104 1 -64.0749 20.4699 2.86934
105 1 -64.6871 20.9604 3.3926
106 1 -64.3198 20.8238 4.24908
107 1 -63.9184 21.633 4.28599
108 1 -64.0483 22.5322 3.97606
109 1 -63.5393 22.5083 4.77255
110 1 -62.7732 22.3921 4.19421
111 1 -62.3174 23.0314 3.74849
112 1 -62.4426 22.5837 2.94393
113 1 -61.5847 22.3833 2.66967
114 1 -61.5406 22.0065 1.69464
115 1 -61.4434 22.457 0.915733
116 1 -61.686 22.5514 0.0357069
117 1 -62.5599 22.2951 0.27386
118 1 -63.18 21.5867 0.269468
119 1 -63.374 20.9546 -0.427085
120 1 -63.2377 21.675 -1.02629
121 1 -63.4112 21.5513 -1.92625
122 1 -62.8037 21.844 -2.58755
123 1 -62.7389 20.8959 -2.61612
124 1 -62.7166 20.261 -1.94214
125 1 -63.4948 19.7861 -1.84476
126 1 -64.1421 19.0559 -1.85325
127 1 -63.7752 18.8136 -1.04798
128 1 -62.8224 18.8276 -0.972808
129 1 -62.058 18.3029 -0.987051
130 1 -61.6504 18.9293 -0.392001
131 1 -61.4391 19.342 0.442064
132 1 -60.8827 20.0049 0.768602
133 1 -60.7979 20.3904 1.62148
134 1 -59.8831 20.4632 1.66967
135 1 -58.9341 20.3565 1.6072
136 1 -58.5691 19.5766 1.97116
137 1 -58.4549 19.0772 1.15999
138 1 -57.7086 18.5038 1.12474
139 1 -57.8806 17.8799 0.400096
140 1 -57.0332 17.4238 0.410554
141 1 -56.127 17.1656 0.486836
142 1 -55.3246 17.5947 0.26539
143 1 -55.0123 18.4876 -0.0901168
144 1 -55.7523 18.7842 0.408529
145 1 -56.6822 18.444 0.435228
146 1 -57.3052 18.6516 -0.231394
147 1 -56.7006 18.2381 -0.846926
148 1 -55.7561 17.9294 -1.1758
149 1 -55.3081 17.5274 -1.88761
150 1 -54.4785 17.9838 -2.16663
151 1 -53.7741 17.7124 -2.74121
152 1 -53.2634 16.9926 -2.39017
153 1 -52.3411 16.9113 -2.53979
154 1 -51.5059 17.1933 -2.3839
155 1 -50.8036 17.8996 -2.32968
156 1 -51.2894 18.7099 -2.26469
157 1 -50.4208 18.8186 -2.71474
158 1 -49.7022 19.2795 -3.19443
159 1 -49.4427 20.0306 -2.64447
160 1 -48.6068 20.4066 -2.34495
161 1 -48.2195 20.2641 -1.47911
162 1 -47.5067 20.7958 -1.07913
163 1 -47.1296 20.2771 -1.81182
164 1 -47.0663 19.9012 -2.70413
165 1 -46.9002 19.0745 -2.36909
166 1 -46.867 18.2145 -1.88506
167 1 -46.8746 18.0726 -2.79607
168 1 -46.7123 18.7537 -3.43727
169 1 -46.6502 18.4768 -4.32136
170 1 -45.897 17.8989 -4.36805
171 1 -45.1256 17.675 -4.81784
172 1 -44.4117 17.0628 -5.07619
173 1 -44.8258 16.2211 -5.17806
174 1 -44.1762 15.6956 -5.53977
175 1 -43.5054 16.1339 -6.08803
176 1 -42.6129 16.5504 -5.7721
177 1 -41.7566 16.2796 -5.59999
178 1 -40.9802 16.597 -5.13282
179 1 -40.3494 15.9297 -5.42176
180 1 -39.7782 16.2596 -4.71443
181 1 -39.6036 17.1966 -4.50382
182 1 -39.0985 16.6024 -3.95538
183 1 -38.444 16.828 -4.6542
184 1 -37.5314 16.8081 -4.70596
185 1 -37.4614 15.9154 -5.04622
186 1 -36.7045 15.4229 -5.00564
187 1 -36.0074 15.8671 -4.52564
188 1 -35.0793 16.1057 -4.46489
189 1 -34.6705 16.5918 -5.14062
190 1 -34.8512 17.2244 -4.42963
191 1 -34.3903 17.9595 -4.94494
192 1 -33.915 17.9452 -5.76109
193 1 -34.3611 18.6722 -6.09269
194 1 -33.6103 19.1099 -5.70406
195 1 -33.0107 19.8249 -5.46941
196 1 -32.1694 19.7643 -5.8461
197 1 -31.7391 18.9551 -5.99536
198 1 -30.8468 18.876 -6.27748
199 1 -30.1578 19.5248 -6.08721
200 1 -29.4681 19.2805 -5.54122
201 1 -28.5856 18.9666 -5.63231
202 1 -28.2967 18.4325 -4.93905
203 1 -27.4015 18.4276 -4.68122
204 1 -27.0855 19.0817 -4.12954
205 1 -26.3035 19.4167 -4.58044
206 1 -25.5375 19.3586 -5.07246
207 1 -24.8508 19.1243 -5.68859
208 1 -24.6154 18.6622 -4.91963
209 1 -23.9088 18.0229 -4.5145
210 1 -23.0843 18.3519 -4.88288
211 1 -22.4801 18.3322 -5.64282
212 1 -21.8334 18.947 -5.3532
213 1 -22.0329 19.0401 -6.24835
214 1 -22.4889 19.7728 -6.58501
215 1 -23.1183 19.7899 -7.33832
216 1 -23.9123 19.3194 -7.35588
217 1 -24.5487 18.8905 -7.89538
218 1 -24.0013 18.4438 -8.55794
219 1 -23.9201 17.6873 -9.08648
220 1 -23.0989 17.4398 -8.65428
221 1 -22.8615 18.3237 -8.35574
222 1 -23.1486 18.2637 -7.44363
223 1 -23.0967 17.5086 -6.92671
224 1 -22.2587 17.5471 -6.49
225 1 -21.5875 17.8219 -5.94874
226 1 -21.0664 17.0841 -5.6501
227 1 -20.255 17.5536 -5.30899
228 1 -20.0374 18.44 -5.68411
229 1 -19.9815 19.3416 -5.31253
230 1 -19.5621 19.9146 -5.92178
231 1 -19.5437 20.0178 -6.83716
232 1 -19.1595 20.0436 -7.70584
233 1 -18.6573 20.7357 -7.29975
234 1 -17.7825 20.3512 -7.27566
235 1 -17.3705 20.5277 -8.12588
236 1 -17.2568 20.8991 -9.02239
237 1 -16.386 20.861 -9.34582
238 1 -16.0556 20.4799 -10.1923
239 1 -15.2648 20.4384 -10.7128
240 1 -14.417 20.0919 -10.9035
241 1 -14.0687 19.3899 -10.3988
242 1 -13.3172 19.7009 -9.93147
243 1 -13.4432 20.5105 -10.3666
244 1 -13.0387 21.2908 -10.6105
245 1 -12.5271 21.8048 -9.97582
246 1 -11.9323 22.015 -10.6733
247 1 -11.724 22.9707 -10.8024
248 1 -11.1076 23.6402 -10.687
249 1 -10.2645 23.7733 -11.067
250 1 -9.6218 23.1217 -11.149
251 1 -10.4032 22.7196 -11.5342
252 1 -9.79508 22.1757 -11.9024
253 1 -8.84847 22.1685 -11.769
254 1 -8.21769 22.3156 -12.3834
255 1 -8.19944 22.2512 -13.3125
256 1 -8.10065 21.4861 -13.8589
257 1 -8.66029 20.7275 -13.7825
258 1 -8.88051 19.8466 -14.2247
259 1 -8.43341 20.0639 -15.0382
260 1 -7.73126 20.5397 -14.7154
261 1 -7.61174 20.3602 -13.797
262 1 -7.55206 19.5731 -13.2398
263 1 -7.1638 18.8702 -12.814
264 1 -7.04449 18.8567 -11.8302
265 1 -6.32979 18.9869 -11.1532
266 1 -5.62526 18.4251 -11.4733
267 1 -4.75979 18.0636 -11.3653
268 1 -4.0422 18.1714 -10.8054
269 1 -3.53545 17.4488 -10.6149
270 1 -2.94216 17.6765 -11.2655
271 1 -2.48218 17.8267 -10.4385
272 1 -2.09284 18.2061 -9.67929
273 1 -1.22002 18.6364 -9.49593
274 1 -1.0201 18.6346 -8.55707
275 1 -1.22214 18.0597 -7.78369
276 1 -1.9074 18.2052 -7.18293
277 1 -2.38858 18.1423 -6.4128
278 1 -1.9405 18.1963 -5.5896
279 1 -1.03498 18.3992 -5.68384
280 1 -0.784296 18.9831 -4.9723
281 1 0.154056 19.1124 -4.9403
282 1 0.421117 19.9911 -5.18476
283 1 1.09985 19.4984 -4.92731
284 1 1.66546 19.5789 -4.17721
285 1 2.18333 18.9437 -4.60954
286 1 2.7923 18.7975 -5.27154
287 1 3.40606 18.0327 -5.48717
288 1 3.96197 18.3185 -6.1705
289 1 4.86142 18.0293 -6.28284
290 1 4.91561 17.3698 -6.98156
291 1 5.62679 16.7736 -7.27558
292 1 6.4499 16.7062 -6.73703
293 1 7.33393 16.4529 -6.64261
294 1 7.92309 15.9086 -6.06886
295 1 8.00026 15.9126 -5.1451
296 1 7.21382 15.3593 -5.13256
297 1 6.88118 14.4744 -5.33653
298 1 7.5861 14.3569 -5.85961
299 1 7.59479 13.524 -6.29699
300 1 7.74178 12.6751 -6.78239
301 1 8.19121 12.9533 -7.58637
302 1 8.50152 13.8221 -7.53401
303 1 8.58502 14.6585 -7.11067
304 1 8.72189 15.0059 -6.27822
305 1 9.56139 15.3472 -6.40252
306 1 10.191 16.0528 -6.49334
307 1 10.9276 15.9901 -5.84752
308 1 11.1333 16.6476 -5.23565
309 1 11.9944 16.878 -4.91823
310 1 12.7939 16.3392 -4.99259
311 1 13.5476 16.566 -4.44416
312 1 13.8133 16.2509 -3.58371
313 1 14.4142 16.884 -3.89013
314 1 15.2052 16.6467 -3.47207
315 1 15.8938 16.0371 -3.22372
316 1 16.8057 16.2131 -3.14391
317 1 16.9606 16.308 -2.15001
318 1 17.8724 16.5635 -2.04256
319 1 18.581 16.9713 -2.4954
320 1 18.8208 16.3557 -1.78383
321 1 19.3762 17.1593 -1.75847
322 1 19.7881 16.5142 -1.1147
323 1 19.6309 15.7129 -0.657928
324 1 19.1824 15.5778 0.162873
325 1 19.6802 14.9149 0.539191
326 1 19.4837 15.4934 1.28321
327 1 20.3706 15.1849 1.29463
328 1 21.1831 14.9779 0.821439
329 1 21.9365 14.9526 1.43541
330 1 22.7907 15.2916 1.68968
331 1 22.9823 14.7007 2.40613
332 1 22.1947 15.2125 2.63586
333 1 22.8412 15.6987 3.1058
334 1 22.7328 15.5584 4.05362
335 1 23.3947 15.819 4.67566
336 1 22.8451 16.2332 5.28447
337 1 22.8448 16.5693 6.1637
338 1 22.5209 17.4029 6.43103
339 1 22.9671 17.442 5.59178
340 1 23.7512 17.7604 5.23669
341 1 23.3201 18.4624 4.69025
342 1 23.6628 19.031 4.03594
343 1 23.0994 19.212 3.28027
344 1 22.6081 19.8851 2.87505
345 1 23.3738 20.1893 2.41424
346 1 23.0766 20.5622 1.54105
347 1 22.2802 21.0666 1.33217
348 1 21.5106 20.5631 1.62658
349 1 21.1988 20.8701 0.739905
350 1 20.6735 20.1676 0.276147
351 1 21.0449 20.6508 -0.385709
352 1 21.7344 20.509 -1.01766
353 1 22.3679 19.9238 -0.698376
354 1 21.9426 19.9607 0.0871182
355 1 22.693 20.0726 0.680261
356 1 23.5999 20.0625 0.346412
357 1 24.3949 19.9296 0.95567
358 1 25.063 19.2766 0.969847
359 1 25.5183 19.9507 1.48628
360 1 26.2296 19.5514 1.09992
361 1 26.8026 19.6388 1.8209
362 1 27.6128 19.9942 2.21439
363 1 27.3095 20.7757 2.64249
364 1 27.3214 21.2712 3.45482
365 1 27.4811 21.7434 4.22381
366 1 27.9202 22.4263 4.6916
367 1 28.1596 21.6871 5.25306
368 1 28.5257 20.8494 4.97716
369 1 29.0985 21.5328 5.29842
370 1 28.8989 22.4569 5.1668
371 1 29.5727 23.0879 5.13616
372 1 30.0777 23.701 4.49869
373 1 30.8214 23.7723 3.92196
374 1 31.7686 23.6339 3.71433
375 1 32.7091 23.8063 3.61936
376 1 33.1677 23.0646 3.34355
377 1 34.0182 23.0362 3.72786
378 1 34.4542 23.5615 3.09969
379 1 34.9845 22.9075 2.67551
380 1 34.8392 22.0562 2.27333
381 1 35.1589 21.3923 2.92692
382 1 35.7223 20.9431 3.52261
383 1 36.6074 20.7367 3.27276
384 1 36.3919 20.323 4.10229
385 1 37.2053 20.778 4.11852
386 1 37.7457 20.1505 4.58779
387 1 37.4812 20.9455 5.04519
388 1 38.3967 21.3968 5.12109
389 1 38.6555 21.6321 6.0319
390 1 39.2559 21.0437 6.50412
391 1 39.6894 20.2372 6.76593
392 1 39.6116 20.077 7.71762
393 1 40.0988 20.2077 8.55005
394 1 40.4884 19.3466 8.59989
395 1 41.2701 18.9084 8.2254
396 1 41.6502 18.0986 8.4069
397 1 42.4427 17.7445 8.02097
398 1 42.1912 16.8491 8.30969
399 1 41.3928 17.065 7.77543
400 1 41.9481 16.8327 7.00039
401 1 42.3204 16.0626 7.26027
402 1 42.7787 15.2798 7.58952
403 1 43.0584 15.6063 8.41121
404 1 43.5187 14.7344 8.62367
405 1 42.8952 14.0027 8.70777
406 1 43.5449 13.3921 8.52486
407 1 43.6261 12.441 8.35316
408 1 42.7322 12.3796 8.69805
409 1 42.8586 11.5292 8.95606
410 1 42.8267 10.6874 8.46294
411 1 43.5769 10.4247 8.90393
412 1 44.2317 9.82109 8.65353
413 1 44.8211 10.534 8.62921
414 1 45.649 10.1354 8.56969
415 1 46.3655 10.7367 8.50257
416 1 47.0789 10.8905 9.1409
417 1 47.2641 10.1569 8.70295
418 1 47.3194 10.6395 7.86412
419 1 47.9317 11.0931 7.25685
420 1 48.051 12.0349 7.14124
421 1 48.2966 12.6335 7.81834
422 1 47.9348 11.9447 8.45946
423 1 47.3775 12.6032 8.80512
424 1 47.8074 12.3555 9.57621
425 1 48.3867 12.8153 10.1414
426 1 48.6882 12.163 10.7341
427 1 49.1186 12.9016 11.1678
428 1 50.0041 13.2649 11.296
429 1 50.0667 12.9614 10.3681
430 1 50.0403 13.3326 9.42393
431 1 49.8626 12.4423 9.254
432 1 50.5071 11.8248 8.88243
433 1 51.1684 11.6623 8.14759
434 1 50.8176 10.8173 7.84333
435 1 50.825 9.89034 7.81303
436 1 51.5124 9.49075 7.30741
437 1 52.4644 9.4581 7.4147
438 1 52.3537 8.76195 8.0094
439 1 53.2267 9.1168 8.11358
440 1 54.1637 9.18275 7.99014
441 1 54.8263 8.5846 8.07989
442 1 55.3181 7.77754 8.02032
443 1 55.7992 7.07407 7.53426
444 1 55.4907 6.2051 7.78866
445 1 55.2719 5.86829 6.97649
446 1 54.7476 5.47047 7.55395
447 1 55.2123 5.30206 8.33118
448 1 54.8789 5.10785 9.23275
449 1 55.0818 4.15706 9.21402
450 1 55.1657 3.4037 9.80575
451 1 55.9161 2.88981 9.53455
452 1 56.5794 3.57935 9.55583
453 1 56.9917 2.79411 9.12581