ITEM: TIMESTEP
290000
ITEM: NUMBER OF ATOMS
512
ITEM: BOX BOUNDS mm mm mm
-2.5600000000000000e+02 2.5600000000000000e+02
-2.5600000000000000e+02 2.5600000000000000e+02
-2.5600000000000000e+02 2.5600000000000000e+02
ITEM: ATOMS id type x y z
1 1 -123.276 1.17084 13.2053
2 1 -123.139 0.346455 12.8106
3 1 -123.837 -0.340455 12.7674
4 1 -123.251 -0.861355 12.1655
5 1 -123.435 -1.79134 12.4704
6 1 -123.7 -2.29679 13.2115
7 1 -124.37 -2.76739 13.6696
8 1 -124.931 -2.56422 12.9564
9 1 -125.436 -2.58753 12.0981
10 1 -125.948 -2.57492 12.906
11 1 -125.635 -3.43129 13.1986
12 1 -126.046 -4.25119 13.3692
13 1 -126.163 -4.00128 12.4612
14 1 -125.849 -4.52642 11.7836
15 1 -124.928 -4.65658 11.862
16 1 -124.471 -5.40967 11.672
17 1 -124.046 -5.55048 10.8648
18 1 -123.078 -5.76582 10.8885
19 1 -122.587 -6.35018 10.3655
20 1 -122.794 -6.80911 9.5685
21 1 -123.329 -7.28262 8.88774
22 1 -123.049 -7.94176 8.28646
23 1 -123.045 -8.86177 8.57361
24 1 -122.417 -9.41557 8.14605
25 1 -121.701 -9.96664 7.84023
26 1 -121.474 -10.7114 7.31786
27 1 -120.986 -11.529 7.2236
28 1 -120.365 -11.4629 8.0203
29 1 -120.23 -10.627 8.35724
30 1 -119.499 -10.0653 8.14022
31 1 -118.655 -10.2323 7.76525
32 1 -117.844 -10.6035 7.38259
33 1 -117.276 -11.0849 7.93862
34 1 -117.413 -10.5592 8.65473
35 1 -117.429 -10.6202 9.61986
36 1 -116.805 -11.281 9.45214
37 1 -116.193 -11.5646 8.81494
38 1 -115.478 -11.0071 8.95593
39 1 -115.687 -10.2693 8.44835
40 1 -116.221 -9.55125 8.31877
41 1 -115.357 -9.1431 8.42752
42 1 -115.963 -8.53615 7.99888
43 1 -116.203 -7.9232 7.36104
44 1 -116.809 -7.21771 7.25476
45 1 -116.923 -6.91853 8.1283
46 1 -116.107 -6.43425 8.33063
47 1 -115.441 -6.08806 7.78105
48 1 -114.537 -5.91209 8.08541
49 1 -113.727 -5.41856 8.00804
50 1 -113.713 -5.91924 7.2107
51 1 -113.838 -5.35769 6.40354
52 1 -113.411 -5.12667 5.56014
53 1 -112.998 -4.59775 4.89605
54 1 -112.892 -5.1899 4.14174
55 1 -113.343 -5.91895 3.7939
56 1 -112.765 -6.63875 4.00742
57 1 -112.901 -7.04128 3.1904
58 1 -113.095 -7.8741 2.87008
59 1 -112.521 -8.03822 2.11712
60 1 -111.981 -7.31904 1.76741
61 1 -111.379 -7.11912 2.49784
62 1 -110.839 -6.44841 2.18711
63 1 -110.23 -5.9936 2.77747
64 1 -109.454 -6.51797 2.97498
65 1 -109.282 -6.10828 2.14894
66 1 -108.344 -5.84326 2.26847
67 1 -107.641 -5.55241 2.79448
68 1 -107.484 -5.26243 1.97248
69 1 -106.613 -5.66638 1.8219
70 1 -105.877 -5.19508 1.38141
71 1 -105.267 -4.52412 1.71642
72 1 -104.456 -4.04109 1.67529
73 1 -103.642 -3.95123 2.09859
74 1 -103.393 -3.76125 1.16436
75 1 -103.599 -4.64476 1.09893
76 1 -103.44 -5.51784 0.854672
77 1 -102.921 -6.23282 1.14818
78 1 -102.468 -5.75947 1.85026
79 1 -102.087 -4.96684 1.81484
80 1 -101.436 -4.47107 2.27848
81 1 -101.11 -4.16811 1.46286
82 1 -100.763 -4.65928 0.719153
83 1 -101.332 -5.11963 0.129295
84 1 -100.793 -5.8263 0.257046
85 1 -99.9292 -6.17876 0.406973
86 1 -99.662 -5.31881 0.306526
87 1 -99.1008 -5.1455 1.05665
88 1 -98.3848 -4.56833 1.36761
89 1 -98.3897 -4.26136 0.484061
90 1 -98.0278 -3.42098 0.761931
91 1 -97.7712 -3.07533 1.6355
92 1 -97.206 -2.72976 0.859237
93 1 -96.9199 -1.93204 0.469395
94 1 -96.2423 -1.26395 0.407229
95 1 -95.3714 -0.989573 0.63469
96 1 -94.5774 -0.773255 1.14958
97 1 -94.2653 -1.66927 1.21565
98 1 -93.3902 -2.04942 1.17521
99 1 -93.1971 -1.20406 1.49145
100 1 -92.2753 -1.17595 1.69884
101 1 -91.5947 -1.78112 1.53264
102 1 -91.3936 -0.994053 1.1052
103 1 -91.0576 -0.94269 0.244627
104 1 -90.2419 -1.10365 -0.0944527
105 1 -89.7568 -1.44053 0.620442
106 1 -89.3688 -2.20963 0.164592
107 1 -88.852 -3.00567 0.206767
108 1 -89.3634 -3.75465 0.0113898
109 1 -89.2474 -3.61359 0.931318
110 1 -88.6502 -3.69192 1.65929
111 1 -88.2179 -3.81611 2.49736
112 1 -88.2941 -2.91747 2.67966
113 1 -87.5563 -3.02278 2.12655
114 1 -86.8584 -2.4672 2.42858
115 1 -86.0048 -2.70953 2.1412
116 1 -85.4892 -2.07691 2.64731
117 1 -84.6631 -1.63248 2.58661
118 1 -84.69 -0.851869 2.04131
119 1 -83.8511 -0.891967 2.50658
120 1 -83.2715 -0.113763 2.45265
121 1 -83.8526 0.0346384 3.12474
122 1 -83.5367 -0.569585 3.78437
123 1 -82.7098 -0.773731 3.40939
124 1 -81.7857 -0.555885 3.15667
125 1 -81.0826 -0.682176 2.54109
126 1 -80.5854 -1.24691 3.10672
127 1 -79.8704 -0.619427 2.85616
128 1 -79.0479 -0.705875 3.29046
129 1 -78.4289 -0.58456 3.9376
130 1 -77.8007 -0.653492 3.26473
131 1 -77.3895 0.239801 3.43844
132 1 -77.9673 0.902886 2.98359
133 1 -77.3469 1.51145 2.59604
134 1 -76.7008 1.46554 1.93922
135 1 -76.6473 2.31465 1.5939
136 1 -76.2494 3.11935 1.83488
137 1 -75.3703 3.5469 1.86584
138 1 -75.0511 2.75509 1.48599
139 1 -74.1594 2.73688 1.7952
140 1 -73.4749 2.92014 1.11198
141 1 -72.7377 2.44231 1.4444
142 1 -71.848 2.17951 1.18788
143 1 -70.9577 1.92836 1.14512
144 1 -70.0493 2.15805 1.40764
145 1 -69.1844 2.38482 1.7962
146 1 -68.4403 1.76745 1.85969
147 1 -68.3541 1.96714 2.75205
148 1 -67.7836 1.42431 3.34697
149 1 -67.6246 0.64479 3.79605
150 1 -66.7383 0.876386 3.76711
151 1 -66.0055 1.41454 4.02972
152 1 -65.2963 1.00209 4.38891
153 1 -64.3579 1.04387 4.3461
154 1 -63.8093 1.29955 5.02963
155 1 -62.9038 1.44829 4.82127
156 1 -62.0339 1.70462 4.81331
157 1 -61.6712 1.06136 5.3967
158 1 -60.8143 1.43092 5.14486
159 1 -60.0059 1.80515 4.98951
160 1 -59.1202 1.96695 5.38116
161 1 -58.6616 1.15205 5.40214
162 1 -57.8793 0.622074 5.16763
163 1 -57.1409 0.949731 4.58939
164 1 -56.3687 0.462884 4.5096
165 1 -55.6291 0.949794 4.16684
166 1 -55.0086 1.36417 4.82383
167 1 -54.9881 2.22855 5.20934
168 1 -54.1118 2.25979 5.58247
169 1 -53.3851 1.59127 5.53706
170 1 -52.9341 0.917623 5.98872
171 1 -52.4767 0.117109 5.65634
172 1 -52.1803 -0.227084 4.80185
173 1 -52.7942 0.556523 4.56697
174 1 -53.0182 1.00933 3.75164
175 1 -52.7096 1.9226 3.82611
176 1 -52.0456 1.60572 3.25759
177 1 -51.3398 1.12968 2.8538
178 1 -50.9238 1.54831 2.15963
179 1 -50.0806 1.69459 2.66984
180 1 -49.9518 1.04857 3.31646
181 1 -50.366 1.53655 4.00992
182 1 -49.5358 1.57689 4.50391
183 1 -48.9153 2.27214 4.6979
184 1 -48.2473 2.40317 5.33072
185 1 -48.095 2.99339 6.07006
186 1 -47.3183 3.45576 6.32808
187 1 -46.5301 2.84977 6.14552
188 1 -46.2447 3.41849 6.74751
189 1 -45.4351 3.88885 6.82893
190 1 -44.8127 4.50354 7.17261
191 1 -43.9931 4.25467 6.8874
192 1 -44.1075 3.52533 7.54445
193 1 -43.5296 3.88272 8.24346
194 1 -42.8698 4.27756 8.86918
195 1 -42.111 4.11621 9.38671
196 1 -41.1481 4.14183 9.45051
197 1 -41.1283 4.93416 9.91191
198 1 -40.4029 4.31739 10.2613
199 1 -39.51 4.05227 10.0614
200 1 -38.5494 4.08464 9.91074
201 1 -37.9637 3.49834 9.55259
202 1 -37.076 3.52996 9.89048
203 1 -36.1389 3.57297 9.47047
204 1 -35.3248 3.22263 9.86051
205 1 -34.8076 3.32671 9.10282
206 1 -33.8992 3.42936 9.32215
207 1 -33.0378 3.36023 9.6265
208 1 -32.6676 4.08126 10.1276
209 1 -32.3442 4.18682 9.27725
210 1 -31.4404 4.58604 9.26108
211 1 -30.5168 4.5369 9.41301
212 1 -30.2301 3.71296 9.7711
213 1 -29.6001 3.76304 9.05336
214 1 -29.2443 3.12982 8.47343
215 1 -28.8771 2.63586 9.12168
216 1 -28.1554 3.1401 9.38052
217 1 -27.3789 2.67321 9.18161
218 1 -26.5838 3.03435 8.85577
219 1 -26.1402 3.64647 8.25274
220 1 -25.9318 3.89984 7.37106
221 1 -25.4934 4.68662 7.64919
222 1 -24.8469 5.21265 8.09078
223 1 -24.5907 6.01963 8.51568
224 1 -23.7261 5.99586 8.07554
225 1 -22.8828 6.36477 7.88646
226 1 -22.6223 6.24073 6.99828
227 1 -21.7316 6.08935 6.76731
228 1 -21.097 5.4762 6.61129
229 1 -20.5453 4.69162 6.42811
230 1 -19.7433 4.22814 6.26158
231 1 -19.1805 3.67981 6.77381
232 1 -18.9601 2.95275 6.23109
233 1 -18.5165 2.45883 6.93169
234 1 -17.9879 3.21186 6.70987
235 1 -17.1473 3.01355 7.09039
236 1 -16.5662 3.44984 7.65844
237 1 -15.8316 3.11571 7.26315
238 1 -15.0968 3.30143 6.70623
239 1 -14.6348 3.1023 5.93915
240 1 -13.9489 3.66163 5.82797
241 1 -13.0601 3.92562 5.60873
242 1 -12.2582 3.44282 5.68026
243 1 -11.4107 3.79673 5.84662
244 1 -10.6268 3.75722 6.30687
245 1 -10.3253 3.05523 5.72191
246 1 -10.2115 3.54964 4.95264
247 1 -9.46767 3.74668 4.39093
248 1 -8.88228 4.14322 4.93495
249 1 -8.09383 4.59662 4.55516
250 1 -8.64516 5.31191 4.29156
251 1 -8.40456 6.00556 3.65873
252 1 -7.97766 6.59671 3.1412
253 1 -7.36784 7.19046 2.61297
254 1 -6.54221 6.86155 2.94105
255 1 -5.64844 6.71048 2.70509
256 1 -4.84583 7.06499 3.04039
257 1 -4.54718 6.36017 2.41289
258 1 -4.16497 5.72084 1.87211
259 1 -3.48572 6.09344 1.2894
260 1 -3.12749 6.51998 0.478074
261 1 -2.48785 5.87235 0.353533
262 1 -1.93629 6.65625 0.119232
263 1 -1.37432 7.31715 0.6302
264 1 -0.862224 7.62919 1.34877
265 1 -0.0921517 7.7095 1.74692
266 1 -0.00950805 6.82379 1.89392
267 1 0.229918 6.63996 0.993746
268 1 0.916526 7.05853 0.513632
269 1 1.33852 7.38055 -0.302635
270 1 1.96352 8.05385 -0.58169
271 1 2.74773 7.47308 -0.581527
272 1 3.13246 6.63933 -0.90554
273 1 4.03393 6.80272 -1.02122
274 1 4.85423 6.42641 -0.727697
275 1 5.74552 6.26566 -0.976222
276 1 6.48194 5.74365 -1.20717
277 1 7.1694 6.3936 -1.47274
278 1 7.58213 6.94285 -2.11099
279 1 7.98802 7.63698 -1.56933
280 1 8.80185 7.06461 -1.4939
281 1 9.61957 7.44939 -1.18175
282 1 10.1364 7.46809 -1.90542
283 1 10.716 8.15826 -1.87233
284 1 11.1169 8.66189 -1.16983
285 1 11.6209 8.02598 -0.548242
286 1 12.4363 8.26501 -0.145081
287 1 13.2736 8.5229 0.15715
288 1 14.2295 8.59515 0.0882038
289 1 14.7681 8.35231 -0.575742
290 1 15.4054 7.84891 -0.977252
291 1 15.5625 6.94884 -1.44634
292 1 16.0518 7.55337 -1.9741
293 1 16.9869 7.9001 -2.13851
294 1 17.8638 8.14262 -1.98822
295 1 18.7057 8.43345 -1.98135
296 1 19.5155 8.72608 -2.25274
297 1 20.4139 8.45293 -2.35402
298 1 20.2862 7.88135 -1.61992
299 1 21.0207 8.02872 -1.10939
300 1 21.8497 8.50399 -0.949064
301 1 22.5587 8.25904 -0.445684
302 1 23.4615 8.23955 -0.812438
303 1 23.6853 8.60107 0.00536957
304 1 24.124 9.06593 -0.665915
305 1 24.6129 8.25591 -0.69181
306 1 25.1685 8.07574 -1.46133
307 1 26.0446 8.26635 -1.62394
308 1 26.9116 8.04089 -1.4796
309 1 26.9894 7.51701 -0.714881
310 1 27.1755 7.17684 0.129967
311 1 28.0408 7.15544 0.446792
312 1 28.7993 6.62392 0.784565
313 1 29.6278 6.23488 0.577429
314 1 30.5277 6.47311 0.258553
315 1 31.4537 6.5092 0.0461199
316 1 31.7315 6.54175 0.960744
317 1 32.4486 6.10549 0.630299
318 1 33.2995 5.86929 0.993685
319 1 33.5938 4.99712 0.727278
320 1 34.441 4.77762 0.483107
321 1 35.2784 4.91052 0.917306
322 1 35.6689 5.50818 1.46754
323 1 36.3504 4.85651 1.15204
324 1 36.1133 3.94582 1.34388
325 1 36.7146 3.63938 0.746507
326 1 37.5036 3.55184 0.151235
327 1 37.7565 2.77394 -0.346953
328 1 38.2632 1.98022 -0.323481
329 1 38.2592 1.227 0.286318
330 1 39.1183 0.844864 0.117176
331 1 39.0397 -0.0492712 -0.142792
332 1 40.0366 -0.175277 -0.252637
333 1 40.9524 -0.0562333 0.108906
334 1 40.7837 0.630193 -0.558631
335 1 41.6809 0.370363 -0.801633
336 1 42.4672 0.531553 -0.253287
337 1 42.6565 0.884468 0.614744
338 1 43.5791 0.960557 0.626107
339 1 44.0826 0.731647 1.3933
340 1 44.9532 1.02093 1.62057
341 1 45.3411 1.58764 0.958029
342 1 45.628 2.46006 0.694734
343 1 46.2878 2.79786 1.31651
344 1 46.2885 3.70105 1.37109
345 1 47.0001 3.70127 2.0024
346 1 47.8655 3.4254 1.81539
347 1 48.3734 3.0153 1.12361
348 1 49.0385 3.14104 0.504625
349 1 49.8331 2.86302 0.0547421
350 1 50.4702 2.20429 -0.0390026
351 1 51.2027 1.77712 0.336843
352 1 51.8891 2.15979 -0.143567
353 1 52.3274 1.6953 0.585797
354 1 52.9729 2.30805 0.395355
355 1 53.6646 2.87253 0.270751
356 1 54.2937 3.6044 0.138316
357 1 54.9775 3.04088 -0.050266
358 1 55.2199 2.82388 -0.983545
359 1 55.8387 2.61032 -1.66786
360 1 56.7915 2.48253 -1.93024
361 1 57.0489 3.22492 -1.40721
362 1 57.1457 4.16475 -1.62162
363 1 57.6471 4.57051 -0.931804
364 1 58.3823 4.01326 -1.11651
365 1 59.2743 3.87369 -1.02168
366 1 59.9759 4.04324 -0.378221
367 1 60.7176 4.47389 -0.733857
368 1 61.557 4.88179 -0.57825
369 1 62.1348 5.35727 -0.0211548
370 1 62.9954 5.39417 0.261343
371 1 63.6302 4.75589 0.0367951
372 1 64.4165 4.65445 -0.454257
373 1 65.339 4.6173 -0.59634
374 1 66.1603 5.03843 -0.692213
375 1 66.3078 5.60627 0.0161174
376 1 66.5455 6.37438 -0.432175
377 1 66.9969 6.68687 0.28079
378 1 67.7537 6.16038 0.529692
379 1 68.4152 6.03946 1.1736
380 1 68.6343 5.97003 2.16351
381 1 69.1248 5.22033 1.87956
382 1 69.2592 4.46897 1.32472
383 1 70.1346 4.58757 1.59534
384 1 71.028 4.23697 1.28636
385 1 70.9848 3.79374 0.479902
386 1 71.7122 3.53248 0.0186606
387 1 72.4639 3.12459 -0.296243
388 1 73.0045 3.89384 -0.0470753
389 1 73.745 4.16285 0.456453
390 1 73.6477 3.28615 0.598605
391 1 74.5085 3.37893 0.228919
392 1 75.3252 3.08935 -0.186604
393 1 76.1673 3.25858 0.246734
394 1 76.8803 2.90038 -0.243434
395 1 77.508 2.20256 -0.383042
396 1 78.1106 2.19078 0.35329
397 1 78.1617 1.24735 0.231967
398 1 78.9713 0.888921 0.536458
399 1 79.4493 1.58874 0.0854117
400 1 79.3519 2.02922 -0.704544
401 1 80.0863 1.60348 -1.07265
402 1 80.8265 1.21192 -0.655571
403 1 81.5955 1.62803 -0.36732
404 1 82.3877 1.24914 -0.752185
405 1 83.2421 1.22678 -0.568009
406 1 84.231 1.03653 -0.50799
407 1 84.3925 1.64366 0.229052
408 1 84.6736 0.72883 0.440142
409 1 85.1847 0.251233 1.02796
410 1 85.2627 -0.478798 1.63196
411 1 85.4063 0.0261322 2.40849
412 1 86.3386 -0.055854 2.30591
413 1 86.3837 -0.864853 2.91389
414 1 86.5182 -1.81668 3.00086
415 1 86.6828 -2.57052 2.4375
416 1 87.4453 -2.18973 2.74412
417 1 88.0026 -1.50781 2.47401
418 1 88.8484 -1.27372 2.83594
419 1 88.8651 -2.17029 2.72197
420 1 88.2695 -2.56441 3.33949
421 1 88.0782 -1.71576 3.65077
422 1 88.9115 -1.54235 4.08018
423 1 89.7283 -1.05971 4.19283
424 1 89.6801 -0.424984 3.54471
425 1 90.5508 -0.0907656 3.16214
426 1 91.398 -0.00831836 2.75198
427 1 91.9765 0.388484 2.05037
428 1 92.4123 -0.198116 1.54676
429 1 93.3046 -0.172198 1.14185
430 1 93.7968 0.567406 0.903999
431 1 94.4643 0.429119 0.209898
432 1 95.2817 0.96332 0.0434401
433 1 95.7907 0.507677 0.69949
434 1 96.6209 0.206546 1.00291
435 1 96.8997 0.507643 1.83298
436 1 97.7412 1.02631 1.67993
437 1 98.4442 1.3256 2.23539
438 1 99.2986 1.29678 1.84935
439 1 100.057 0.729305 1.66453
440 1 100.443 0.0318099 1.18864
441 1 100.855 -0.69029 1.56426
442 1 101.343 -1.21492 1.03048
443 1 101.728 -1.12724 1.86834
444 1 102.465 -1.44648 2.30329
445 1 102.393 -2.30162 2.77389
446 1 101.775 -2.53935 3.44302
447 1 102.415 -2.76386 4.14489
448 1 103.383 -2.84353 3.90876
449 1 104.107 -3.46644 3.80909
450 1 104.563 -3.86417 4.50858
451 1 104.635 -4.77472 4.66486
452 1 104.634 -4.43834 5.5463
453 1 104.186 -4.69871 6.29346
454 1 104.374 -4.93067 7.15691
455 1 105.057 -5.49299 6.78868
456 1 105.179 -6.33366 6.49337
457 1 105.902 -6.45924 7.10163
458 1 106.586 -5.96949 7.4047
459 1 106.756 -5.21997 6.85664
460 1 107.445 -5.7932 6.57623
461 1 107.852 -6.40414 7.13367
462 1 108.573 -6.10897 7.61879
463 1 109.148 -6.87868 7.47418
464 1 109.502 -6.57793 6.55657
465 1 109.321 -6.06982 5.82427
466 1 109.237 -6.97508 5.60896
467 1 109.864 -7.35083 5.04699
468 1 109.55 -8.18636 5.27068
469 1 108.662 -7.97927 5.12425
470 1 107.943 -7.46755 4.74186
471 1 107.355 -6.83651 4.41947
472 1 107.383 -6.95134 3.48921
473 1 107.191 -6.06791 3.49796
474 1 107.764 -5.46899 2.99884
475 1 108.214 -4.65097 3.00038
476 1 107.681 -4.57366 3.70683
477 1 108.369 -3.9379 3.7896
478 1 109.064 -3.61406 3.26982
479 1 109.936 -3.26085 3.48708
480 1 110.605 -3.22071 4.14104
481 1 110.649 -2.30023 4.06569
482 1 109.851 -1.89585 3.72712
483 1 110.098 -2.10561 2.8374
484 1 109.758 -1.99391 1.99424
485 1 110.354 -1.49761 1.5001
486 1 111.312 -1.59554 1.38746
487 1 112.104 -1.65449 0.922978
488 1 112.034 -2.50563 1.30288
489 1 112.736 -3.04266 0.934074
490 1 112.822 -3.17812 0.0312443
491 1 113.429 -3.42628 -0.684344
492 1 113.578 -3.24009 -1.53505
493 1 112.691 -3.01727 -1.5463
494 1 112.952 -2.33625 -0.971935
495 1 113.793 -2.23809 -0.596341
496 1 114.434 -2.91629 -0.364561
497 1 114.913 -3.72759 -0.349386
498 1 115.509 -3.86543 0.331278
499 1 115.606 -3.13796 0.962675
500 1 115.887 -2.23847 0.826053
501 1 115.203 -1.81147 0.389998
502 1 115.153 -1.84622 -0.605765
503 1 114.659 -1.26199 -1.1334
504 1 114.844 -0.628264 -1.85666
505 1 114.709 0.263737 -1.86773
506 1 115.063 0.555965 -2.66979
507 1 114.712 0.904166 -3.47015
508 1 115.043 0.175001 -3.98688
509 1 115.236 -0.101035 -4.89309
510 1 114.495 -0.715267 -4.93583
511 1 113.911 -1.01553 -4.28726
512 1 113.018 -0.992598 -4.09378
ITEM: TIMESTEP
300000
ITEM: NUMBER OF ATOMS
512
ITEM: BOX BOUNDS mm mm mm
-2.5600000000000000e+02 2.5600000000000000e+02
-2.5600000000000000e+02 2.5600000000000000e+02
-2.5600000000000000e+02 2.5600000000000000e+02
ITEM: ATOMS id type x y z
1 1 -120.017 -6.86774 6.89894
2 1 -120.819 -7.34254 6.70645
3 1 -121.685 -7.63693 6.95051
4 1 -122.286 -7.12148 7.37908
5 1 -123.068 -6.81561 7.82472
6 1 -123.884 -6.38863 8.16629
7 1 -123.63 -6.85902 8.92282
8 1 -123.026 -7.57748 8.82392
9 1 -122.26 -7.62176 9.39867
10 1 -121.685 -6.89044 9.26344
11 1 -121.065 -7.41584 9.73831
12 1 -121.549 -7.62731 10.5468
13 1 -121.655 -8.5304 10.6736
14 1 -120.816 -8.36412 10.2507
15 1 -119.934 -8.07943 10.4874
16 1 -119.652 -8.81437 11.0213
17 1 -120.193 -9.50265 11.4339
18 1 -120.184 -9.95227 10.6024
19 1 -119.858 -9.78414 9.72939
20 1 -119.159 -10.2222 9.18033
21 1 -118.714 -10.6838 8.57079
22 1 -118.188 -10.6424 9.35435
23 1 -117.232 -10.5404 9.28939
24 1 -116.29 -10.2277 9.20707
25 1 -115.742 -10.7411 9.78133
26 1 -115.112 -11.0178 9.06988
27 1 -114.781 -11.1619 8.21848
28 1 -114.132 -11.2284 7.50253
29 1 -114.616 -10.659 6.8527
30 1 -115.086 -10.1331 6.20539
31 1 -115.38 -9.25624 6.46845
32 1 -115.704 -8.93485 7.24953
33 1 -116.239 -8.70634 8.01537
34 1 -117.159 -8.80704 8.18729
35 1 -117.889 -8.90449 7.54019
36 1 -118.783 -8.51431 7.60842
37 1 -118.541 -7.68924 8.00331
38 1 -118.294 -7.26798 8.8039
39 1 -117.743 -7.29951 9.50381
40 1 -116.798 -7.22876 9.45511
41 1 -116.073 -7.39717 8.90505
42 1 -116.2 -6.48679 8.8316
43 1 -116.94 -5.95474 9.17037
44 1 -116.841 -5.79737 8.24247
45 1 -116.389 -5.45806 7.5412
46 1 -115.486 -5.52823 7.88039
47 1 -115.147 -4.75913 7.46851
48 1 -115.191 -3.86921 7.2052
49 1 -114.697 -3.25371 6.69773
50 1 -113.8 -3.17034 6.41778
51 1 -113.209 -2.74956 7.02615
52 1 -112.719 -3.34138 7.58065
53 1 -112.778 -4.31351 7.86823
54 1 -112.897 -4.64739 6.96916
55 1 -113.555 -5.13544 6.39415
56 1 -112.667 -5.29145 6.20009
57 1 -111.871 -5.35945 5.73873
58 1 -111.765 -5.09821 4.8742
59 1 -111.132 -5.63591 4.42238
60 1 -111.162 -4.67266 4.15527
61 1 -110.35 -4.14318 4.18545
62 1 -109.611 -3.76096 3.72665
63 1 -109.477 -3.10894 4.4482
64 1 -109.043 -3.91799 4.59832
65 1 -108.749 -4.73989 4.28681
66 1 -108.88 -5.52022 3.73772
67 1 -108.244 -5.91871 3.15171
68 1 -107.478 -5.71888 3.61661
69 1 -106.863 -5.00327 3.52959
70 1 -107.098 -4.19805 3.05616
71 1 -107.357 -3.76498 2.22915
72 1 -107.146 -4.69748 2.19001
73 1 -106.305 -4.98479 2.41037
74 1 -105.411 -5.10561 2.73322
75 1 -104.629 -4.62817 2.90395
76 1 -104.498 -3.88299 2.25247
77 1 -104.245 -3.12577 2.73881
78 1 -103.842 -2.67262 2.06229
79 1 -103.102 -2.29094 1.64229
80 1 -102.49 -2.88308 2.00046
81 1 -101.673 -3.30003 2.32441
82 1 -101.212 -3.03024 1.49926
83 1 -100.597 -3.7112 1.7365
84 1 -100.323 -3.60695 2.60836
85 1 -99.772 -2.85225 2.44409
86 1 -99.8022 -2.19573 3.10093
87 1 -99.0485 -1.70904 2.73353
88 1 -98.275 -2.24237 2.88023
89 1 -98.4651 -2.148 1.96424
90 1 -97.9141 -2.05597 1.20648
91 1 -97.1278 -2.52183 1.03241
92 1 -96.1943 -2.20816 0.813331
93 1 -95.6439 -1.48395 0.741866
94 1 -95.483 -0.724637 1.22464
95 1 -94.8546 -1.23741 1.74034
96 1 -93.8971 -1.30426 1.7771
97 1 -93.2496 -1.72777 2.375
98 1 -92.4965 -2.42153 2.71809
99 1 -92.4837 -3.34546 2.78935
100 1 -91.8458 -3.71866 2.1872
101 1 -91.3335 -3.43389 2.86454
102 1 -90.5746 -3.00366 3.27619
103 1 -90.0678 -2.46197 2.72808
104 1 -89.7172 -3.33274 2.78418
105 1 -88.8208 -3.01964 2.40957
106 1 -88.9436 -3.19829 1.45895
107 1 -88.3869 -2.56259 0.993934
108 1 -87.6047 -2.78448 1.34095
109 1 -86.9897 -2.10004 1.25157
110 1 -86.68 -2.20907 2.08341
111 1 -86.2632 -2.84493 2.67324
112 1 -85.3639 -2.46679 2.67558
113 1 -85.2237 -2.10619 3.57963
114 1 -84.9037 -2.01771 4.46717
115 1 -84.5608 -2.90886 4.75293
116 1 -83.869 -2.84454 5.38412
117 1 -83.3259 -3.60873 5.20164
118 1 -82.6418 -3.84259 5.81385
119 1 -81.7784 -3.65674 6.20778
120 1 -81.0692 -3.694 5.60401
121 1 -80.2386 -4.00466 6.14247
122 1 -79.4936 -4.37571 6.55676
123 1 -79.3108 -4.21178 7.46243
124 1 -78.5698 -4.68748 7.3129
125 1 -77.7903 -4.59904 6.83631
126 1 -76.8913 -4.42812 7.04004
127 1 -76.4922 -3.6325 6.6918
128 1 -75.7259 -3.76068 6.12581
129 1 -75.9499 -2.91916 5.58342
130 1 -75.131 -2.74544 5.96649
131 1 -74.5204 -2.60627 6.72731
132 1 -74.5079 -2.04497 7.45353
133 1 -74.1339 -2.49205 8.26036
134 1 -73.2926 -2.75691 8.54866
135 1 -73.449 -2.43687 9.41196
136 1 -72.9842 -1.6188 9.5104
137 1 -73.2737 -0.790062 9.84519
138 1 -72.7506 0.0205487 9.87416
139 1 -72.2416 0.602438 10.527
140 1 -71.9784 1.36071 10.0618
141 1 -71.1188 1.53871 9.67383
142 1 -70.5935 2.22533 9.30394
143 1 -70.2227 2.53929 10.1272
144 1 -69.5445 2.1704 10.6421
145 1 -68.7248 1.80991 10.8901
146 1 -68.0555 2.0545 10.3058
147 1 -68.2724 2.6226 9.57156
148 1 -67.3381 2.69885 9.42125
149 1 -66.6122 3.18389 9.84038
150 1 -66.9501 3.9256 9.35529
151 1 -66.2532 4.40166 9.74965
152 1 -65.8867 5.24105 9.54981
153 1 -65.0384 5.52064 9.3894
154 1 -64.5644 5.90622 8.66346
155 1 -64.1037 6.70416 8.83512
156 1 -63.2567 7.09649 8.89246
157 1 -62.4331 6.74878 8.99921
158 1 -61.6405 7.12271 8.62797
159 1 -61.1401 7.92874 8.51512
160 1 -60.1928 7.9756 8.59004
161 1 -59.5397 8.24754 7.99888
162 1 -58.649 8.16002 7.81777
163 1 -58.0256 7.43197 7.71156
164 1 -57.2835 6.81574 7.52786
165 1 -56.9191 7.27495 8.24813
166 1 -56.161 7.56097 7.73027
167 1 -55.3086 7.66701 8.10316
168 1 -54.9779 6.80498 7.62114
169 1 -54.6196 6.20497 8.3065
170 1 -54.1905 5.41605 8.15303
171 1 -53.3264 5.40479 8.54302
172 1 -52.6703 4.75361 8.79474
173 1 -52.0622 4.05211 9.06607
174 1 -51.2801 4.04042 9.61423
175 1 -50.5047 4.38213 9.36793
176 1 -49.6764 4.76379 9.07535
177 1 -49.4158 5.53377 8.65715
178 1 -48.558 5.70601 8.44723
179 1 -48.0596 6.45707 8.75541
180 1 -47.9818 7.21701 9.29255
181 1 -47.9623 8.03333 9.81643
182 1 -47.6867 8.71255 10.3928
183 1 -47.3789 7.96 10.8573
184 1 -46.7664 7.67244 11.5408
185 1 -45.8901 7.77573 11.7029
186 1 -45.3568 7.75809 10.9687
187 1 -44.5948 7.95341 10.3436
188 1 -44.1343 7.12393 10.2854
189 1 -43.5391 7.2619 9.56933
190 1 -42.7425 7.14256 10.0579
191 1 -42.3016 7.84044 10.5375
192 1 -41.9887 7.15096 11.0609
193 1 -41.2836 7.72115 10.7921
194 1 -40.8092 7.04239 10.4124
195 1 -40.0217 6.48072 10.3468
196 1 -39.3367 7.03906 10.0935
197 1 -38.5483 6.65153 10.472
198 1 -37.7286 6.21302 10.6427
199 1 -36.8139 6.09958 10.5809
200 1 -35.9275 5.89779 10.4683
201 1 -35.0295 6.17905 10.6334
202 1 -34.2434 6.65647 11.0518
203 1 -33.7483 6.74262 10.2962
204 1 -32.8849 6.82844 10.6397
205 1 -31.9923 6.56143 10.8149
206 1 -31.0335 6.58246 11.0436
207 1 -30.2575 7.13976 11.2102
208 1 -29.5493 6.63426 10.9027
209 1 -29.2539 5.82287 11.2567
210 1 -28.4017 6.06401 10.9153
211 1 -28.3864 6.05645 9.93621
212 1 -27.4304 6.16282 9.75551
213 1 -26.4982 6.16862 9.8172
214 1 -25.6349 5.93112 9.52952
215 1 -25.8806 5.06577 9.16821
216 1 -25.0548 4.67606 8.96165
217 1 -24.5244 4.32246 8.30714
218 1 -25.0137 4.21122 7.45386
219 1 -24.8027 4.79514 6.74741
220 1 -24.7793 4.76918 5.80241
221 1 -24.8036 4.69442 4.89077
222 1 -24.1371 5.17581 4.41836
223 1 -23.2588 5.33128 4.82381
224 1 -22.3892 5.62184 4.84429
225 1 -21.6596 6.04964 4.45125
226 1 -21.3688 6.90822 4.31919
227 1 -20.4356 7.12001 4.32839
228 1 -19.7787 6.50944 4.30741
229 1 -19.1281 7.18765 4.32826
230 1 -19.0588 7.97041 3.8662
231 1 -19.6279 8.47198 3.28776
232 1 -19.0144 9.19022 3.18901
233 1 -19.1294 9.90764 2.55496
234 1 -19.1434 10.3632 1.69924
235 1 -18.2917 10.5345 1.28679
236 1 -17.4905 11.0166 1.06547
237 1 -17.2655 11.4311 0.270965
238 1 -16.7206 11.4276 -0.551051
239 1 -16.3218 12.1669 -0.128432
240 1 -15.5597 12.6106 -0.278949
241 1 -15.1971 12.9586 0.515099
242 1 -14.306 13.2908 0.482486
243 1 -13.4385 12.998 0.734144
244 1 -12.5745 12.5469 0.716368
245 1 -11.8249 11.9982 1.1698
246 1 -11.0059 12.4764 1.08659
247 1 -10.5027 12.3476 0.252892
248 1 -9.84491 12.8262 -0.165932
249 1 -9.11271 13.1234 -0.721578
250 1 -8.54484 13.5162 -0.0966772
251 1 -7.71033 13.1729 0.104855
252 1 -7.74023 13.0948 -0.814173
253 1 -7.6547 12.2295 -1.16152
254 1 -6.92095 11.7675 -1.45133
255 1 -6.0942 11.3418 -1.34616
256 1 -5.47143 10.8919 -0.886326
257 1 -4.56671 10.9902 -0.905363
258 1 -3.94012 10.4547 -1.22804
259 1 -3.10353 10.3143 -0.819489
260 1 -2.50904 9.69085 -1.14679
261 1 -2.06566 8.84579 -1.23212
262 1 -1.11247 9.00462 -1.1166
263 1 -0.427086 8.51565 -0.701672
264 1 0.3089 8.95119 -1.08825
265 1 1.14171 8.69725 -0.613161
266 1 2.10771 8.8263 -0.459648
267 1 2.49624 9.3293 0.279871
268 1 2.47491 8.60241 0.942183
269 1 3.02278 8.67603 1.70901
270 1 2.57693 8.3206 2.42801
271 1 3.42347 8.54662 2.83441
272 1 4.2821 8.54068 3.33965
273 1 4.23389 7.62817 2.98757
274 1 4.82268 7.10537 3.50053
275 1 4.74171 6.1569 3.70554
276 1 5.03041 6.12999 2.76534
277 1 5.15054 5.24171 2.44761
278 1 5.53328 5.23966 3.28211
279 1 6.38719 5.63051 3.40756
280 1 7.30096 5.51367 3.17673
281 1 8.03548 6.08135 3.16846
282 1 8.78387 5.75287 2.79592
283 1 9.72555 5.86771 2.7778
284 1 9.80991 5.719 1.80854
285 1 10.6679 5.41143 1.53774
286 1 11.5299 5.67095 1.20571
287 1 12.2137 6.34248 1.36631
288 1 12.9726 6.49369 0.820135
289 1 13.1356 5.56452 0.776764
290 1 13.6601 5.12302 0.152436
291 1 14.2804 5.8288 0.0289139
292 1 15.1256 5.87186 0.371135
293 1 15.9552 5.55317 0.73017
294 1 16.7885 5.32314 1.13246
295 1 17.5045 5.05059 0.588435
296 1 18.1531 5.28662 -0.0652811
297 1 18.6382 4.81345 -0.789651
298 1 19.4523 5.28101 -0.748516
299 1 20.3222 5.14948 -1.01756
300 1 21.1284 4.82988 -0.599255
301 1 21.9073 5.30893 -0.388168
302 1 22.7014 5.55698 0.0223904
303 1 22.8915 5.12396 0.801674
304 1 23.2064 5.15774 1.66741
305 1 23.8538 5.71148 2.00674
306 1 24.6671 6.14706 2.14734
307 1 25.526 6.15812 1.92454
308 1 26.4588 6.25406 1.97302
309 1 27.4201 6.27182 1.97227
310 1 27.4836 6.53527 1.04429
311 1 27.9584 6.78798 0.299781
312 1 28.4872 6.06757 0.616537
313 1 29.0095 5.88477 1.38349
314 1 29.6906 6.38525 1.76645
315 1 30.4677 6.65781 2.13528
316 1 30.9267 5.87134 2.15297
317 1 31.6183 6.04436 2.75941
318 1 32.1273 6.43409 2.09322
319 1 32.8893 6.28189 1.43865
320 1 33.5412 5.58181 1.33552
321 1 34.4475 5.27343 1.3553
322 1 34.7631 5.69988 0.60593
323 1 34.8405 6.00181 -0.318461
324 1 35.6403 5.54238 -0.431974
325 1 35.9818 4.82185 -0.925987
326 1 36.8565 5.12012 -0.99955
327 1 37.6759 5.34869 -0.544331
328 1 38.4834 5.5975 -0.0780101
329 1 39.3664 5.31834 -0.00562462
330 1 40.2055 5.02763 -0.358105
331 1 40.8843 4.7655 0.25669
332 1 41.6824 4.12987 0.405935
333 1 42.2187 3.96189 -0.367156
334 1 42.8753 4.13862 -1.03612
335 1 43.5982 4.35063 -1.58565
336 1 44.1489 4.12021 -2.32215
337 1 44.9894 3.85874 -1.88356
338 1 45.9002 4.02997 -1.95245
339 1 46.7035 4.42067 -1.53165
340 1 47.5309 4.67157 -1.7947
341 1 48.3019 5.03783 -2.14994
342 1 49.1128 5.59372 -2.30221
343 1 49.3844 5.17057 -1.5139
344 1 50.2514 5.09389 -1.11578
345 1 49.7799 5.71361 -0.611593
346 1 49.4831 6.37845 0.0560285
347 1 50.2111 6.87589 -0.112321
348 1 51.0896 6.73999 0.189292
349 1 51.778 6.09854 0.395802
350 1 51.7214 5.18072 0.141474
351 1 52.5853 4.99185 -0.134703
352 1 52.5622 4.22001 -0.651815
353 1 52.3513 4.90329 -1.26551
354 1 53.1281 5.39718 -1.31236
355 1 53.6936 6.13803 -1.64106
356 1 54.6295 5.95191 -1.65333
357 1 55.548 6.03559 -1.57543
358 1 56.3759 5.45759 -1.38084
359 1 57.1538 5.02119 -1.76311
360 1 57.4494 4.28755 -1.22409
361 1 58.1593 4.83847 -1.56369
362 1 58.9536 5.13169 -1.04503
363 1 59.7585 5.3593 -0.582751
364 1 60.6625 5.33635 -0.411729
365 1 61.4132 5.25944 -0.903064
366 1 62.0327 4.58036 -0.994868
367 1 62.9152 4.89182 -1.18421
368 1 63.8001 4.64141 -0.956878
369 1 64.0123 4.99715 -1.83507
370 1 64.6828 4.85 -2.46296
371 1 65.1938 5.57226 -2.63066
372 1 65.992 5.76667 -2.17678
373 1 66.5203 6.08351 -1.49263
374 1 67.4897 6.16334 -1.79122
375 1 67.4872 5.43852 -2.41661
376 1 68.1729 5.33101 -3.0114
377 1 68.6019 4.56555 -3.48002
378 1 69.374 4.49533 -3.90837
379 1 70.2015 4.02699 -4.09163
380 1 70.8536 3.36881 -4.00588
381 1 71.1315 3.78025 -3.18869
382 1 71.8909 3.46684 -2.72056
383 1 72.316 2.8698 -3.29533
384 1 72.8511 3.35974 -3.94263
385 1 73.6864 2.92528 -3.91997
386 1 73.6725 2.91737 -3.00856
387 1 74.4687 2.86941 -2.6108
388 1 74.5581 1.98475 -2.95271
389 1 74.6265 1.08287 -2.81184
390 1 75.2657 0.7774 -2.18742
391 1 75.7915 -0.0109325 -2.09977
392 1 76.7915 -0.0880382 -1.9567
393 1 77.2339 -0.0904833 -1.12035
394 1 77.7471 0.460448 -1.68103
395 1 77.5229 1.30358 -1.91207
396 1 77.9246 1.59766 -2.71329
397 1 78.0663 0.704358 -3.04999
398 1 78.9199 0.533575 -3.49622
399 1 79.0519 -0.339762 -3.12293
400 1 79.2508 -0.0778867 -2.17437
401 1 80.0663 0.28638 -1.98421
402 1 80.6098 0.522596 -1.27601
403 1 81.5091 0.220871 -1.29699
404 1 82.2844 0.165471 -0.683063
405 1 83.1471 0.311676 -0.361394
406 1 83.0802 0.667309 0.48829
407 1 83.8999 0.883299 0.892414
408 1 84.0926 0.362955 1.6243
409 1 84.0979 0.156183 2.56921
410 1 84.3555 -0.622503 2.8318
411 1 85.1096 -1.14357 2.6602
412 1 85.7699 -0.464735 2.85433
413 1 86.6882 -0.469204 3.23045
414 1 87.1564 -0.0943771 2.50295
415 1 87.7592 -0.0904811 1.7897
416 1 88.4209 -0.656791 1.54744
417 1 88.4528 -1.58799 1.43176
418 1 88.3314 -1.58164 0.513928
419 1 89.2003 -1.94439 0.305629
420 1 89.5118 -1.97405 -0.539762
421 1 90.3785 -1.5959 -0.352718
422 1 90.8089 -2.05028 0.406108
423 1 91.7388 -2.37034 0.579205
424 1 92.186 -3.14433 0.252892
425 1 91.8533 -3.94799 0.704097
426 1 92.418 -4.36627 0.065745
427 1 92.1184 -5.19424 0.377453
428 1 92.9449 -5.69428 0.443521
429 1 93.7854 -5.80796 0.022244
430 1 93.9622 -5.10566 -0.557158
431 1 94.8 -4.94527 -0.910396
432 1 94.2646 -4.52092 -1.60785
433 1 93.4291 -4.25434 -1.30511
434 1 94.0034 -3.4819 -1.53252
435 1 93.9616 -2.89787 -2.30029
436 1 94.8551 -3.02699 -2.54065
437 1 95.3622 -3.76192 -2.90539