ITEM: TIMESTEP
1040000
ITEM: NUMBER OF ATOMS
512
ITEM: BOX BOUNDS mm mm mm
-2.5600000000000000e+02 2.5600000000000000e+02
-2.5600000000000000e+02 2.5600000000000000e+02
-2.5600000000000000e+02 2.5600000000000000e+02
ITEM: ATOMS id type x y z
1 1 -76.7606 14.6688 17.9155
2 1 -76.75 14.0565 18.6809
3 1 -77.2006 13.3115 18.1572
4 1 -78.0061 12.9044 18.2954
5 1 -78.6473 12.7956 18.9585
6 1 -79.3649 12.7092 19.497
7 1 -80.2181 12.4031 19.0791
8 1 -80.6467 13.018 18.4652
9 1 -81.4166 12.6887 18.0234
10 1 -81.7688 13.5029 17.6569
11 1 -81.6977 12.9782 16.8664
12 1 -81.8676 12.0796 16.9727
13 1 -81.03 11.6599 16.7696
14 1 -81.1289 10.9415 16.1565
15 1 -81.4287 10.8478 15.2929
16 1 -82.0013 11.6178 15.368
17 1 -82.8846 11.2473 15.2097
18 1 -82.595 10.6598 14.5281
19 1 -81.6848 10.8289 14.2183
20 1 -81.2136 11.6209 14.183
21 1 -81.7136 11.9771 13.4433
22 1 -81.2727 12.5523 12.8605
23 1 -81.5106 13.3797 12.5907
24 1 -80.7751 13.5947 13.1453
25 1 -80.3122 14.0833 12.4477
26 1 -79.4091 13.8502 12.4125
27 1 -78.7772 14.1493 12.9798
28 1 -78.1815 14.7544 12.4099
29 1 -78.378 14.0067 11.9072
30 1 -78.7708 13.1234 11.7986
31 1 -78.233 12.698 12.4923
32 1 -77.3458 12.4209 12.3061
33 1 -77.6505 11.6132 11.8316
34 1 -76.9305 11.3413 12.4576
35 1 -76.4685 10.5287 12.5068
36 1 -76.2894 9.78675 12.0196
37 1 -75.6967 9.93348 11.3076
38 1 -75.5018 10.8257 11.2432
39 1 -74.9416 11.665 11.2972
40 1 -74.5853 10.9677 11.8039
41 1 -74.4334 10.0105 11.698
42 1 -74.7307 9.55999 10.9312
43 1 -75.2417 8.75809 10.9994
44 1 -74.8294 8.18168 10.4475
45 1 -74.6323 7.53364 9.82084
46 1 -74.6231 7.27757 8.88664
47 1 -74.3384 6.45809 8.56281
48 1 -74.9778 6.44116 7.84165
49 1 -74.5132 6.80111 7.14068
50 1 -75.0988 6.69665 6.4295
51 1 -74.9749 6.37345 5.5318
52 1 -74.2411 6.95595 5.41624
53 1 -73.5232 7.56523 5.66751
54 1 -72.7854 6.95308 5.902
55 1 -72.2244 6.41501 6.42975
56 1 -71.6052 5.83833 6.00344
57 1 -71.4611 6.78032 5.98361
58 1 -70.8493 6.66827 5.23859
59 1 -70.3632 5.84873 5.32681
60 1 -70.5595 5.02219 5.75857
61 1 -70.61 5.09834 6.67219
62 1 -70.0352 5.77166 6.40391
63 1 -69.6103 5.42947 7.155
64 1 -68.9249 5.42334 6.46344
65 1 -68.8658 5.75793 5.56352
66 1 -69.1053 6.33996 4.8425
67 1 -68.3756 6.40489 4.33643
68 1 -68.2759 6.16374 3.44286
69 1 -67.3459 6.14685 3.68384
70 1 -66.7322 6.71188 4.13699
71 1 -66.3721 7.51657 4.66951
72 1 -66.1347 7.16934 5.54946
73 1 -65.638 7.43459 6.29704
74 1 -65.977 8.24643 5.84028
75 1 -65.6904 8.63075 5.05351
76 1 -65.0662 9.22712 4.59095
77 1 -65.5816 8.8142 3.84146
78 1 -64.7607 9.05805 3.46865
79 1 -63.9352 8.95615 3.06334
80 1 -63.0534 8.60698 3.12946
81 1 -62.862 7.7028 2.76122
82 1 -62.3386 7.09473 3.21616
83 1 -62.5024 7.76071 3.98773
84 1 -62.6345 6.98107 4.54922
85 1 -62.0215 7.59237 5.07924
86 1 -61.0999 7.77251 4.90445
87 1 -60.3269 7.9677 4.35059
88 1 -60.3467 8.58466 3.60996
89 1 -60.2465 7.80173 3.14278
90 1 -60.3307 7.34854 2.26858
91 1 -59.8767 6.70474 1.64749
92 1 -60.7205 6.28472 1.52975
93 1 -60.5855 5.49895 2.03574
94 1 -59.8382 4.88051 2.02132
95 1 -59.2864 4.84761 2.75955
96 1 -58.8569 4.28383 3.37712
97 1 -58.5078 4.89125 4.0195
98 1 -58.8618 4.11767 4.41531
99 1 -59.1838 3.34274 3.78219
100 1 -59.74 3.04707 3.10996
101 1 -59.1396 3.03815 2.43428
102 1 -58.8403 2.99617 1.54249
103 1 -57.9567 2.61453 1.45557
104 1 -57.5593 2.89114 2.24048
105 1 -56.805 2.34386 2.09403
106 1 -56.5862 2.15651 1.22582
107 1 -56.1745 1.43543 1.7457
108 1 -56.0195 0.558739 2.19813
109 1 -55.1336 0.361843 2.27344
110 1 -54.3868 0.599172 1.69101
111 1 -53.7781 0.979583 1.07719
112 1 -53.1518 1.03221 1.7948
113 1 -53.0829 1.90691 1.48115
114 1 -52.8572 2.33044 2.33821
115 1 -52.6309 3.20731 2.18834
116 1 -53.1533 3.91857 1.70349
117 1 -53.7617 4.55082 2.07735
118 1 -54.3584 5.25978 2.1818
119 1 -54.9328 6.01485 2.05671
120 1 -55.3193 5.5299 2.77562
121 1 -56.0421 5.58725 3.39133
122 1 -56.4614 6.41125 3.3208
123 1 -57.2203 6.39428 2.76374
124 1 -56.8299 7.15591 2.29064
125 1 -57.1728 7.85641 2.84403
126 1 -56.4842 8.51176 3.10156
127 1 -56.3067 8.7675 2.24032
128 1 -56.4814 9.58351 1.76401
129 1 -56.2614 9.00311 1.07941
130 1 -56.0623 9.15408 0.153102
131 1 -56.1404 9.23598 -0.789407
132 1 -55.5261 9.01588 -1.43327
133 1 -54.675 9.17767 -1.07868
134 1 -53.797 9.44942 -1.19018
135 1 -53.6128 9.62536 -2.08306
136 1 -53.138 8.84547 -1.81972
137 1 -53.1747 8.02274 -2.33001
138 1 -52.2322 7.75986 -2.25296
139 1 -52.4582 7.20462 -2.94483
140 1 -53.2118 6.87715 -2.56282
141 1 -53.1491 6.77359 -3.46779
142 1 -53.3424 7.61595 -3.87157
143 1 -52.4648 7.62676 -4.2003
144 1 -52.0939 8.45742 -3.81232
145 1 -52.0775 9.21681 -3.23174
146 1 -51.421 9.42472 -2.60741
147 1 -50.5592 9.39497 -2.33459
148 1 -50.3983 8.80367 -1.61396
149 1 -50.0954 8.41706 -2.39895
150 1 -49.8258 7.57605 -2.69783
151 1 -48.9573 7.85535 -2.65621
152 1 -48.4247 8.20831 -3.3084
153 1 -48.7013 8.42756 -4.20015
154 1 -49.0436 8.73262 -4.97178
155 1 -49.3582 8.30506 -5.74853
156 1 -49.3711 7.34758 -5.89678
157 1 -50.1894 6.90429 -6.06948
158 1 -49.5938 6.37949 -5.56612
159 1 -49.8813 5.66181 -5.00743
160 1 -49.1049 5.41143 -5.52703
161 1 -48.7608 4.63815 -5.88153
162 1 -47.883 4.50206 -6.19636
163 1 -47.4186 3.69336 -6.0308
164 1 -47.4338 3.10719 -5.25842
165 1 -47.8997 3.03661 -4.44336
166 1 -47.0653 2.53028 -4.49254
167 1 -47.7211 1.91192 -4.4032
168 1 -47.4523 1.12961 -3.94798
169 1 -46.6005 0.953568 -4.29395
170 1 -45.6802 1.00999 -4.269
171 1 -45.5379 0.241172 -3.80741
172 1 -45.4682 -0.630037 -3.45272
173 1 -45.8772 -0.625727 -2.5961
174 1 -45.1272 -0.632173 -2.03612
175 1 -44.385 -0.103479 -2.37618
176 1 -44.6384 0.780065 -2.34596
177 1 -44.0366 0.776807 -3.07347
178 1 -43.1908 0.356011 -2.83108
179 1 -42.2512 0.401038 -2.72379
180 1 -41.4003 0.724962 -2.87634
181 1 -40.8632 0.844718 -3.69805
182 1 -39.9347 0.847144 -3.83476
183 1 -38.9497 0.588235 -3.62923
184 1 -38.3095 0.796041 -2.9877
185 1 -37.6515 0.184653 -3.12649
186 1 -36.8946 0.73787 -3.38703
187 1 -36.9505 1.25647 -2.65425
188 1 -36.5962 1.17205 -1.82787
189 1 -36.4699 2.16074 -1.7153
190 1 -36.0552 3.02941 -1.88284
191 1 -35.4657 3.57514 -1.36325
192 1 -35.474 3.88937 -0.478556
193 1 -35.0035 4.59474 -0.115265
194 1 -34.174 5.07896 -0.234036
195 1 -33.6496 5.41599 0.534543
196 1 -33.0915 4.73904 1.01526
197 1 -32.8551 5.10061 1.85558
198 1 -33.2489 4.61864 2.51983
199 1 -32.9401 3.84698 2.95314
200 1 -32.1557 3.36334 3.19507
201 1 -32.3668 3.77731 3.96833
202 1 -32.7181 3.89516 4.8089
203 1 -32.9226 3.26038 5.51742
204 1 -32.3508 2.86419 6.11355
205 1 -31.7235 3.42833 5.67173
206 1 -31.5618 3.80838 4.87105
207 1 -30.7962 4.24397 4.38805
208 1 -30.9588 3.81314 3.59888
209 1 -30.4704 4.16799 2.84258
210 1 -30.6059 4.91008 3.38215
211 1 -30.2934 5.77486 3.12528
212 1 -29.5143 6.16008 2.86926
213 1 -28.7478 5.72049 2.62134
214 1 -28.1664 5.92099 3.35666
215 1 -27.2763 6.20085 3.6755
216 1 -26.5546 6.20969 4.27314
217 1 -26.5774 5.31017 3.86968
218 1 -25.6714 5.49183 3.98382
219 1 -25.173 5.23324 4.7121
220 1 -25.1163 4.25831 4.61242
221 1 -25.0004 3.3504 4.93296
222 1 -24.4267 2.97178 5.53854
223 1 -23.9235 2.26086 5.26741
224 1 -23.2317 2.14905 4.65423
225 1 -22.527 1.78785 4.24901
226 1 -22.7204 2.45493 3.56088
227 1 -22.2511 3.3053 3.65918
228 1 -21.6321 3.45166 2.90252
229 1 -21.0168 3.8451 3.4549
230 1 -20.547 4.48566 3.96861
231 1 -20.9006 4.78455 3.13511
232 1 -21.0347 4.93426 2.24042
233 1 -20.5364 4.78818 1.49837
234 1 -19.6736 4.61367 1.25839
235 1 -18.7854 4.63671 0.998739
236 1 -18.108 4.04645 1.0722
237 1 -17.2354 4.01826 0.835624
238 1 -17.3007 4.81012 1.43094
239 1 -16.9001 4.62036 2.23183
240 1 -17.0657 5.49975 2.55608
241 1 -16.3259 5.60597 1.98647
242 1 -15.9512 5.0237 1.35124
243 1 -15.9106 4.44089 0.557598
244 1 -15.1756 3.91297 0.0862357
245 1 -14.5963 4.25372 -0.525189
246 1 -14.3263 5.00116 -1.02706
247 1 -13.9886 5.78349 -1.43028
248 1 -13.2 6.2096 -1.23617
249 1 -13.4769 6.78532 -0.514499
250 1 -13.1811 6.40233 0.278189
251 1 -12.3587 6.00337 0.346817
252 1 -12.2062 5.07739 0.155938
253 1 -13.037 5.18902 -0.260239
254 1 -12.7058 4.69083 -0.963591
255 1 -13.2395 4.17285 -0.373691
256 1 -13.5568 3.9336 -1.24166
257 1 -13.1843 3.07585 -1.23193
258 1 -12.5605 3.54635 -0.771114
259 1 -11.7398 3.65063 -0.404512
260 1 -11.0728 3.78488 0.285911
261 1 -10.5007 3.02122 0.535909
262 1 -9.6685 2.88082 0.865123
263 1 -8.69762 2.7698 0.703602
264 1 -9.033 2.05274 0.170125
265 1 -9.73789 1.61844 -0.169556
266 1 -9.67286 0.766218 -0.643594
267 1 -8.92977 0.131691 -0.61018
268 1 -8.49866 0.15884 0.238162
269 1 -8.20475 0.648527 0.967789
270 1 -7.98272 1.29887 0.311708
271 1 -7.1903 1.05273 -0.128099
272 1 -6.468 0.412365 0.0416509
273 1 -6.06194 -0.244997 0.53245
274 1 -5.2441 -0.148636 0.987238
275 1 -4.83532 0.268432 1.72404
276 1 -4.7085 0.634143 2.54243
277 1 -4.32055 -0.228737 2.80814
278 1 -3.67123 0.551475 2.92765
279 1 -3.23339 0.680389 2.06639
280 1 -2.40342 1.06732 2.1792
281 1 -1.58226 1.13908 1.74373
282 1 -1.5695 1.46228 0.886485
283 1 -1.67028 0.499604 0.761619
284 1 -1.20942 0.264754 -0.0771306
285 1 -0.32658 0.108069 -0.389827
286 1 0.0439213 0.806468 -0.86147
287 1 0.483863 1.60024 -0.958564
288 1 0.974413 2.41092 -0.89852
289 1 1.53456 2.41769 -1.62605
290 1 2.25975 2.6001 -1.02748
291 1 2.00351 3.18793 -0.306407
292 1 2.68122 3.14577 0.36827
293 1 2.69606 3.99068 0.752447
294 1 3.44227 4.48867 0.548259
295 1 3.70959 5.32318 0.824308
296 1 4.40655 5.18453 1.4022
297 1 3.7202 5.18268 1.95842
298 1 3.86959 5.43092 2.85678
299 1 4.30784 4.70018 3.27444
300 1 4.55268 4.24866 2.45656
301 1 4.61756 3.33059 2.52102
302 1 5.50919 3.55996 2.59421
303 1 6.22191 3.96869 3.16747
304 1 7.08124 3.97388 2.65174
305 1 7.78926 4.04205 2.12061
306 1 7.67933 4.9673 2.33499
307 1 8.077 5.45044 1.61722
308 1 8.38421 6.27598 2.13305
309 1 9.25608 6.0703 2.33247
310 1 10.1128 5.63959 2.16858
311 1 10.8172 5.19658 2.45513
312 1 10.306 4.80369 3.1079
313 1 10.8469 5.48068 3.48038
314 1 11.4379 5.85999 4.08062
315 1 12.3411 5.56214 4.07251
316 1 13.0687 5.12837 3.5667
317 1 12.8305 4.49672 4.19405
318 1 12.0896 4.34603 4.69034
319 1 11.2627 4.31702 5.07796
320 1 10.6018 4.94842 5.24634
321 1 9.7747 5.40145 5.26683
322 1 9.74543 6.24537 5.72087
323 1 10.2034 6.99861 6.25227
324 1 10.4386 7.84875 5.94866
325 1 11.3451 8.13738 5.67023
326 1 11.2732 8.84715 5.11265
327 1 11.4043 9.64798 4.62989
328 1 11.811 10.4051 4.17208
329 1 12.2653 11.1876 4.61187
330 1 12.8378 11.6241 5.19118
331 1 12.9261 12.007 6.06939
332 1 12.7834 12.7111 6.68728
333 1 13.4112 12.1945 7.08678
334 1 14.0355 11.5716 6.86168
335 1 14.8155 11.0771 6.95486
336 1 14.5366 10.2675 7.37443
337 1 14.9959 9.64813 7.8724
338 1 15.3327 9.30078 8.74342
339 1 16.1342 8.8986 8.73357
340 1 16.3945 8.63772 7.83584
341 1 17.1 8.48207 7.33574
342 1 17.6984 9.11011 6.91074
343 1 18.6198 9.07823 6.85784
344 1 19.1642 9.67199 6.32884
345 1 19.7723 8.97505 6.05329
346 1 20.6111 8.48764 6.11778
347 1 21.3257 8.33849 6.74547
348 1 22.0189 8.82637 6.2861
349 1 22.7803 8.24638 6.30809
350 1 22.7556 7.88845 7.15502
351 1 23.1961 8.25757 7.93601
352 1 23.1362 7.65424 8.76134
353 1 23.893 7.28022 9.17513
354 1 24.3323 7.61565 8.39316
355 1 24.9725 6.9197 8.61782
356 1 25.7396 7.4442 8.87014
357 1 26.2608 7.67964 9.63471
358 1 26.7815 6.90786 9.59392
359 1 27.713 7.19324 9.41619
360 1 27.9012 7.58459 8.62813
361 1 27.48 7.49269 7.82189
362 1 27.3222 7.52395 6.92522
363 1 28.218 7.20453 7.0454
364 1 28.6054 7.09711 6.24862
365 1 29.4757 7.33249 6.02544
366 1 29.7239 6.46822 6.34785
367 1 30.3724 6.16284 5.70157
368 1 30.6143 5.73621 6.49205
369 1 30.8225 6.51222 6.99584
370 1 31.2316 6.21102 7.76795
371 1 31.7464 6.62689 8.42164
372 1 32.295 6.90708 9.13981
373 1 31.8265 7.09022 9.94538
374 1 32.3448 7.78603 9.64624
375 1 32.0485 8.24808 8.90214
376 1 32.0448 8.70578 8.07004
377 1 31.1252 8.58905 8.06768
378 1 31.2238 8.35069 7.1926
379 1 31.6575 8.71604 6.41943
380 1 31.2517 9.37298 5.87434
381 1 31.1406 9.31086 4.96926
382 1 31.1853 8.40937 4.58108
383 1 31.7802 7.94022 4.00932
384 1 32.5541 7.5809 4.41584
385 1 33.3939 7.87114 4.21014
386 1 33.6204 7.16181 3.67904
387 1 33.0688 7.60594 3.12077
388 1 32.9523 6.82815 2.58807
389 1 33.6047 7.315 2.06818
390 1 34.4139 7.76562 1.98308
391 1 34.9072 8.59146 2.09796
392 1 35.034 8.45381 1.14065
393 1 35.9194 8.6844 1.23356
394 1 36.7579 8.47335 0.833266
395 1 37.2153 8.97937 0.194453
396 1 36.4737 9.54233 0.401829
397 1 37.1042 10.2135 0.303431
398 1 37.5339 9.71244 0.97295
399 1 37.913 9.01617 1.51338
400 1 38.6542 8.46998 1.36292
401 1 39.3612 7.79713 1.39676
402 1 39.8843 7.6399 0.609976
403 1 40.7366 7.88785 0.956444
404 1 41.4825 8.43071 1.00931
405 1 42.2285 8.07194 0.591313
406 1 43.082 7.86899 0.984343
407 1 42.9428 7.08053 1.38468
408 1 43.7533 7.30165 1.77592
409 1 43.8388 7.15127 0.827019
410 1 44.6857 7.22857 0.312625
411 1 45.2259 7.74414 -0.23605
412 1 46.1039 7.87874 0.0216872
413 1 46.141 7.27889 0.750322
414 1 46.5128 7.25107 1.66551
415 1 46.0882 7.50299 2.40024
416 1 45.7357 8.31026 2.09206
417 1 46.5619 8.63028 2.37667
418 1 47.2883 8.42145 2.91495
419 1 47.2663 8.06143 3.77118
420 1 47.4385 7.80094 4.68026
421 1 46.801 7.25542 5.10193
422 1 47.356 6.68733 4.51158
423 1 47.6651 6.09357 3.83238
424 1 48.3474 6.04006 4.43087
425 1 49.0058 5.56279 4.80799
426 1 49.3817 4.71585 4.88744
427 1 50.0907 4.92322 5.43773
428 1 50.2756 5.5878 6.00578
429 1 51.0249 6.16895 5.82975
430 1 51.7198 5.70213 5.36358
431 1 52.1648 6.4839 5.01869
432 1 53.0338 6.66855 5.36952
433 1 52.5251 7.46303 5.44631
434 1 53.3148 7.84794 5.9083
435 1 53.1749 8.81964 6.00131
436 1 53.381 9.59974 6.43294
437 1 54.0635 10.2107 6.65246
438 1 53.3859 10.7862 6.92866
439 1 53.6076 10.9053 7.81965
440 1 54.4618 11.1266 7.61402
441 1 54.8276 10.3105 7.97148
442 1 54.986 9.43588 7.69154
443 1 54.7045 8.70842 8.20708
444 1 55.6217 8.58817 7.90744
445 1 56.3213 8.93627 7.34964
446 1 57.2205 8.92905 7.68558
447 1 57.9207 8.36154 7.57219
448 1 58.727 7.82744 7.67549
449 1 59.205 7.02807 7.54483
450 1 60.0657 6.68119 7.42944
451 1 60.8137 7.27181 7.38388
452 1 61.6569 7.16143 6.95599
453 1 61.4587 8.0549 6.94763
454 1 61.6475 8.84362 6.53478
455 1 62.5206 8.56589 6.44461
456 1 62.8866 8.67164 5.57611
457 1 63.7217 9.18852 5.53293
458 1 64.2135 9.95775 5.58859
459 1 64.6924 10.4839 4.97329
460 1 64.5589 11.0266 4.21198
461 1 65.2798 10.7336 3.70944
462 1 65.3158 10.4522 2.76648
463 1 65.752 10.7679 2.0255
464 1 66.0674 9.92324 1.77872
465 1 65.958 9.67326 0.819294
466 1 65.9595 9.03353 0.1315
467 1 66.5329 8.43283 0.638309
468 1 66.2217 8.21777 1.52115
469 1 65.3735 8.32698 1.96317
470 1 64.7865 8.87634 2.41785
471 1 64.9476 8.26245 3.08514
472 1 65.5799 7.60511 3.34662
473 1 66.0447 8.21237 3.87014
474 1 66.4639 8.03793 3.07204
475 1 66.8408 7.21412 3.10008
476 1 66.9946 6.62802 2.35365
477 1 66.9382 5.84152 2.91332
478 1 67.5831 5.33466 2.47607
479 1 67.9644 5.23148 1.68808
480 1 67.8358 4.8732 0.779493
481 1 67.0405 4.81597 1.1718
482 1 66.831 5.63563 1.60266
483 1 67.3446 6.36251 1.26445
484 1 67.9003 6.50845 2.02989
485 1 68.5843 6.42206 2.69464
486 1 69.4022 6.24044 2.22889
487 1 69.8476 6.66697 2.91537
488 1 70.6651 6.37194 2.67439
489 1 71.5257 6.47246 2.87613
490 1 72.4403 6.4981 2.91279
491 1 72.6065 6.50674 2.00245
492 1 72.8438 6.96383 1.20592
493 1 73.5089 6.69892 0.650396
494 1 74.1656 6.96297 1.24789
495 1 74.2603 6.0691 1.52851
496 1 74.1813 5.46074 0.803198
497 1 74.8944 5.16624 1.32258
498 1 74.8932 5.44711 2.21246
499 1 75.7304 5.12271 2.30397
500 1 75.4908 4.32579 1.73621
501 1 75.8853 3.88647 0.920299
502 1 76.3036 3.35338 0.263001
503 1 76.9073 2.62959 0.373293
504 1 77.7993 2.76674 0.4947
505 1 78.0811 2.91965 1.39184
506 1 77.9415 3.19642 2.26721
507 1 77.8109 4.02713 1.8191
508 1 77.3921 4.85687 1.73499
509 1 77.307 5.48733 1.03579
510 1 78.0679 5.4353 0.436663
511 1 77.4159 6.04893 0.249329
512 1 77.3323 6.92558 0.533361
ITEM: TIMESTEP
1050000
ITEM: NUMBER OF ATOMS
512
ITEM: BOX BOUNDS mm mm mm
-2.5600000000000000e+02 2.5600000000000000e+02
-2.5600000000000000e+02 2.5600000000000000e+02
-2.5600000000000000e+02 2.5600000000000000e+02
ITEM: ATOMS id type x y z
1 1 -76.3635 15.6446 14.9269
2 1 -76.6715 16.4992 14.6285
3 1 -76.8683 16.8866 15.5335
4 1 -77.4323 16.1797 15.2876
5 1 -77.8044 15.5045 15.8509
6 1 -77.5783 14.887 15.1893
7 1 -77.9555 14.0898 15.4872
8 1 -77.4754 13.2353 15.4533
9 1 -78.4288 12.9919 15.4457
10 1 -78.661 12.4379 16.1277
11 1 -78.5399 11.5012 16.1394
12 1 -79.4622 11.1784 16.1854
13 1 -79.8816 11.8872 15.6049
14 1 -79.8686 12.3891 16.48
15 1 -80.3869 12.6151 17.2159
16 1 -80.542 13.5643 16.9064
17 1 -79.686 13.919 17.0697
18 1 -79.3018 13.4791 17.8641
19 1 -78.6018 13.5541 18.4329
20 1 -78.0534 12.7714 18.3469
21 1 -77.3344 12.4122 17.905
22 1 -76.6195 12.5689 17.2696
23 1 -76.3772 12.3235 16.3682
24 1 -75.8441 11.9974 15.6498
25 1 -75.7599 11.0967 15.3265
26 1 -76.224 10.4672 15.8
27 1 -76.8117 10.1214 16.5094
28 1 -76.3564 9.41877 16.8526
29 1 -76.841 8.88462 16.197
30 1 -76.5224 7.98999 15.9934
31 1 -76.9267 7.94922 15.2179
32 1 -77.1341 7.62764 14.3631
33 1 -76.9051 6.77073 14.0184
34 1 -76.1711 7.06235 13.4517
35 1 -75.6874 6.46977 12.8873
36 1 -75.0134 6.64402 12.2679
37 1 -75.2101 6.98403 11.3719
38 1 -75.5203 7.25013 10.5464
39 1 -75.677 7.98178 9.91351
40 1 -76.5123 7.43377 9.87103
41 1 -76.4952 7.95872 9.01548
42 1 -76.7415 7.84797 8.09049
43 1 -76.2885 7.08452 8.38268
44 1 -75.3282 7.03403 8.31679
45 1 -74.5811 7.60705 8.17867
46 1 -74.0516 8.39774 7.89984
47 1 -73.7021 9.24044 7.91707
48 1 -73.4203 8.85425 7.13421
49 1 -73.2158 9.77536 7.11427
50 1 -72.601 10.5377 6.97
51 1 -72.8216 11.4186 6.76485
52 1 -72.9806 12.1653 6.20901
53 1 -73.8368 12.5604 6.02158
54 1 -74.1118 12.0231 5.21726
55 1 -74.1499 12.1825 4.24992
56 1 -73.2607 11.8392 4.04449
57 1 -72.7988 12.1367 3.32108
58 1 -72.0376 11.6579 3.57376
59 1 -71.5147 10.9824 3.04719
60 1 -71.0638 10.3465 2.59661
61 1 -70.8827 10.065 3.43356
62 1 -70.0207 10.3011 3.17551
63 1 -69.4433 10.0422 2.45758
64 1 -70.0953 9.40828 2.13719
65 1 -69.8314 8.51914 1.87669
66 1 -69.1554 7.89217 2.19653
67 1 -68.5595 8.5018 1.79254
68 1 -67.7184 8.91214 1.5582
69 1 -66.8638 8.55377 1.68084
70 1 -66.5617 8.19201 2.44312
71 1 -66.198 7.39359 2.57997
72 1 -66.3243 6.48999 2.79117
73 1 -66.1601 6.35217 3.69331
74 1 -65.8959 5.3857 3.89803
75 1 -65.0308 5.70642 3.67178
76 1 -64.1726 5.98018 3.40554
77 1 -63.6016 5.33128 3.18212
78 1 -63.8331 5.89366 2.40907
79 1 -63.4056 6.5869 1.93738
80 1 -62.6978 6.50002 1.28542
81 1 -61.7838 6.73249 1.65459
82 1 -60.8613 6.46339 1.77146
83 1 -59.9134 6.23251 1.70089
84 1 -59.8903 5.46781 2.26336
85 1 -59.9558 6.13463 2.85734
86 1 -59.6964 6.96527 3.35826
87 1 -59.5095 7.43676 4.11049
88 1 -58.6201 7.40868 4.11832
89 1 -57.7338 7.61844 4.26417
90 1 -57.5543 8.52574 4.15277
91 1 -57.3073 8.24187 5.01896
92 1 -57.5354 8.01606 5.89692
93 1 -57.9866 7.42404 5.31131
94 1 -57.7138 6.49066 5.55008
95 1 -57.2422 6.72562 4.74672
96 1 -57.6157 5.95573 4.49481
97 1 -58.4965 5.81884 4.82067
98 1 -58.8729 4.98549 4.96308
99 1 -58.9779 4.09985 5.0378
100 1 -58.3037 3.48952 4.76033
101 1 -57.3941 3.35575 4.51591
102 1 -56.6244 3.32552 4.0052
103 1 -56.197 2.53713 4.02582
104 1 -56.1547 1.71659 3.5275
105 1 -56.0843 2.24295 2.74391
106 1 -55.174 2.17844 2.58696
107 1 -54.861 1.3154 2.88457
108 1 -54.3359 1.0023 3.56558
109 1 -54.1851 1.86206 3.8346
110 1 -53.5551 2.54778 3.64201
111 1 -53.0262 3.03662 3.06094
112 1 -52.2442 3.46272 3.33902
113 1 -52.5196 4.31211 3.6076
114 1 -52.8468 5.07001 3.08566
115 1 -52.7385 5.98026 2.96684
116 1 -52.4433 6.22269 3.81464
117 1 -53.071 6.82611 3.42726
118 1 -53.344 7.49166 2.82448
119 1 -53.9698 6.78289 2.57435
120 1 -54.7612 6.32354 2.8347
121 1 -55.5141 6.22565 2.31935
122 1 -55.7667 5.59152 1.68025
123 1 -55.2587 5.33728 0.943202
124 1 -54.8358 5.92921 0.335853
125 1 -55.4701 6.19523 -0.248983
126 1 -55.6922 6.82581 -0.916796
127 1 -55.2799 7.08072 -1.72744
128 1 -55.6237 6.2591 -1.94358
129 1 -55.5954 6.1305 -2.93337
130 1 -55.0558 5.42 -3.21465
131 1 -54.4588 6.16857 -3.1016
132 1 -54.0483 7.04785 -3.2156
133 1 -53.2156 7.25212 -2.752
134 1 -52.5956 6.53369 -2.98345
135 1 -52.2221 6.76949 -3.79585
136 1 -51.3732 7.17571 -4.11805
137 1 -50.8894 7.7029 -4.68984
138 1 -50.5752 6.87755 -5.16395
139 1 -49.7729 6.53616 -5.52126
140 1 -49.0681 6.92082 -5.10172
141 1 -48.3464 6.53452 -4.61739
142 1 -47.9453 6.21119 -5.39265
143 1 -47.4948 6.94074 -5.84193
144 1 -48.2867 6.99795 -6.42013
145 1 -48.5635 7.50532 -7.1624
146 1 -48.4027 6.82658 -7.82651
147 1 -47.5607 6.49709 -7.67812
148 1 -46.9171 6.1519 -8.28605
149 1 -46.9163 5.76719 -9.10207
150 1 -47.2896 6.30222 -9.83424
151 1 -48.1787 6.52225 -10.0274
152 1 -48.6696 5.99823 -10.6988
153 1 -49.2896 5.5871 -10.0793
154 1 -49.0949 5.18383 -9.20194
155 1 -48.2133 4.87973 -9.1955
156 1 -48.0798 3.98131 -9.50708
157 1 -48.4146 4.12312 -10.3765
158 1 -49.0129 4.54974 -10.9101
159 1 -48.3599 4.79982 -11.5382
160 1 -47.8732 5.09623 -12.2605
161 1 -47.37 5.18154 -11.4934
162 1 -46.875 5.3612 -10.6181
163 1 -46.0106 5.2521 -10.3101
164 1 -45.4373 5.95565 -10.0607
165 1 -44.9299 6.61214 -10.5668
166 1 -44.7901 7.39544 -10.0656
167 1 -44.0039 6.94147 -10.0234
168 1 -43.5414 6.13334 -10.042
169 1 -43.0631 6.00694 -9.27192
170 1 -42.9609 6.48738 -8.48229
171 1 -42.8684 5.6877 -7.99069
172 1 -42.9726 5.5722 -7.11882
173 1 -42.3722 5.43692 -6.41465
174 1 -41.6695 5.38936 -7.06392
175 1 -41.148 4.61593 -7.06629
176 1 -40.383 4.52608 -6.5585
177 1 -40.3025 4.51188 -5.66212
178 1 -40.5144 5.31675 -5.1606
179 1 -40.1567 5.43177 -4.29826
180 1 -40.3432 6.07414 -3.61754
181 1 -40.7571 5.58437 -2.92967
182 1 -41.2676 4.89492 -3.3319
183 1 -41.987 5.36099 -2.95295
184 1 -42.3024 5.18271 -2.08651
185 1 -41.9821 5.98519 -1.71858
186 1 -41.5928 6.19122 -0.908735
187 1 -40.9912 5.41218 -0.928234
188 1 -40.8731 4.54887 -0.621726
189 1 -40.3356 3.85013 -0.357877
190 1 -39.6625 3.60747 0.202841
191 1 -38.8679 3.22913 -0.105316
192 1 -38.0046 2.95575 -0.25937
193 1 -37.2631 3.47328 -0.705889
194 1 -36.4777 3.22194 -1.24856
195 1 -35.7562 2.60659 -1.45266
196 1 -34.8615 2.39017 -1.29718
197 1 -34.0238 2.492 -1.71268
198 1 -33.585 2.26103 -0.873787
199 1 -33.3041 3.19313 -0.685537
200 1 -33.2689 3.35746 0.230436
201 1 -32.8803 2.66896 0.706793
202 1 -32.0912 2.46019 1.31129
203 1 -32.713 2.11656 1.99018
204 1 -32.1023 1.44021 2.19259
205 1 -31.7979 2.08248 2.6753
206 1 -32.2939 1.65508 3.30715
207 1 -31.5919 1.2035 3.70701
208 1 -30.8565 1.1078 3.16736
209 1 -30.5713 1.79939 3.74096
210 1 -29.8875 2.35669 4.05573
211 1 -29.2927 2.49464 3.35099
212 1 -28.7543 2.34282 4.143
213 1 -27.9841 2.44644 4.67878
214 1 -27.3216 2.98493 5.06653
215 1 -27.829 3.6363 4.61981
216 1 -27.5342 4.00505 3.81117
217 1 -27.1742 3.99258 2.96806
218 1 -27.4773 3.83909 2.12362
219 1 -28.1295 4.5299 2.1579
220 1 -27.8403 4.81852 2.98429
221 1 -27.9803 5.69393 3.21499
222 1 -28.4434 6.11541 2.45471
223 1 -27.5413 6.08897 2.23766
224 1 -26.7623 5.78366 2.67922
225 1 -26.4963 6.32552 1.98898
226 1 -25.9786 6.50906 2.75621
227 1 -24.9975 6.5032 2.71984
228 1 -24.3622 5.76347 2.89737
229 1 -23.7994 5.07191 3.18334
230 1 -23.8984 4.33895 2.64112
231 1 -23.0564 4.13237 2.29401
232 1 -22.1852 4.37708 2.07058
233 1 -21.3686 4.44765 1.60049
234 1 -21.08 5.1006 1.00923
235 1 -20.868 4.7014 0.201479
236 1 -21.0798 3.92969 -0.345541
237 1 -20.9957 3.38694 0.402778
238 1 -21.6331 2.9199 -0.113755
239 1 -21.413 2.08464 -0.47712
240 1 -20.5698 2.48814 -0.553841
241 1 -19.8374 2.91059 -0.956167
242 1 -19.4506 3.16119 -1.76372
243 1 -18.7867 3.47711 -2.31281
244 1 -18.2988 4.11365 -2.92437
245 1 -17.3748 4.22533 -2.82882
246 1 -16.7386 4.32671 -3.53279
247 1 -16.1002 3.68188 -3.62853
248 1 -15.7049 3.64973 -4.48998
249 1 -15.6444 3.72331 -5.4415
250 1 -15.7264 3.46344 -6.32738
251 1 -15.5073 2.84652 -7.01788
252 1 -14.7878 3.48236 -6.869
253 1 -14.2313 4.21931 -6.89231
254 1 -15.1164 4.60607 -6.5974
255 1 -14.8055 4.21825 -5.84561
256 1 -14.7926 4.2495 -4.91438
257 1 -14.137 4.18705 -4.22668
258 1 -13.4601 4.05377 -3.55244
259 1 -12.9696 3.33953 -3.19338
260 1 -12.1921 2.77151 -3.13495
261 1 -11.4771 2.40952 -3.56829
262 1 -10.9955 3.01782 -4.07142
263 1 -10.0964 3.01408 -3.76725
264 1 -9.45534 3.32541 -3.22162
265 1 -9.5621 3.77635 -2.33941
266 1 -9.78186 3.12318 -1.55234
267 1 -8.77945 3.19656 -1.41979
268 1 -7.881 3.08292 -1.74943
269 1 -7.41464 2.26241 -2.01777
270 1 -7.03646 1.41008 -1.98319
271 1 -6.15239 1.68678 -1.75365
272 1 -5.32579 1.55425 -2.22587
273 1 -4.85651 2.1685 -2.82459
274 1 -4.41125 2.95367 -3.17744
275 1 -5.29925 3.14918 -3.49667
276 1 -6.2658 3.26545 -3.59326
277 1 -7.05919 3.23199 -4.10792
278 1 -7.33477 3.95984 -4.67636
279 1 -7.52379 4.86492 -4.5965
280 1 -7.40077 5.46623 -3.93333
281 1 -7.12806 6.38261 -3.75509
282 1 -6.47463 5.96973 -3.22584
283 1 -6.0949 5.18529 -2.89376
284 1 -5.28041 5.54142 -2.56209
285 1 -4.48298 5.58172 -2.0445
286 1 -3.89146 6.29687 -2.12695
287 1 -3.69607 6.97546 -1.45962
288 1 -4.48518 7.4312 -1.64286
289 1 -4.4494 7.97332 -2.37171
290 1 -3.71598 8.05359 -2.90845
291 1 -3.11188 7.41945 -2.55215
292 1 -2.5435 7.13709 -1.8172
293 1 -1.71046 6.79863 -1.53129
294 1 -1.15286 6.78838 -0.747253
295 1 -0.444887 6.55867 -0.135844
296 1 0.375627 6.47741 0.258808
297 1 1.04922 7.09815 0.500326
298 1 1.96997 7.13223 0.655925
299 1 2.46314 6.38795 0.536677
300 1 3.19628 6.74205 0.0244027
301 1 3.86614 6.78831 -0.655348
302 1 4.68569 6.84972 -0.265847
303 1 5.50362 6.26444 -0.21753
304 1 6.41905 6.34384 -0.0507929
305 1 6.93412 5.96169 0.658051
306 1 7.5254 5.50932 1.25721
307 1 7.99487 4.99934 1.88369
308 1 8.77032 4.74888 2.41328
309 1 8.43487 5.44673 2.94044
310 1 8.33827 6.29558 3.18561
311 1 8.31128 7.11438 3.59733
312 1 7.82792 6.9818 4.40356
313 1 8.48823 6.41589 4.68992
314 1 7.89363 6.42702 5.40904
315 1 7.85209 7.35531 5.60054
316 1 8.02249 7.90639 6.29485
317 1 8.80334 8.41371 6.44975
318 1 9.55889 8.88702 6.06534
319 1 9.7896 9.60655 5.4345
320 1 10.6871 9.9242 5.42576
321 1 10.9467 10.5712 6.11119
322 1 11.2667 10.9362 6.90163
323 1 11.6105 11.462 6.19804
324 1 12.1527 11.7377 6.95178
325 1 12.4403 10.869 7.14738
326 1 13.3095 11.0088 6.90317
327 1 13.9738 11.6388 6.6783
328 1 14.8538 11.5419 6.91207
329 1 15.1119 11.3796 6.00259
330 1 15.6647 10.6276 6.03781
331 1 16.4711 11.0725 5.97815
332 1 17.2291 10.7696 6.52075
333 1 17.2218 9.86672 6.29164
334 1 17.7509 10.2524 5.6404
335 1 18.5833 10.7416 5.33337
336 1 19.3674 10.4418 5.85228
337 1 20.1282 10.4399 6.40308
338 1 20.0877 9.56294 6.74532
339 1 19.3154 9.16789 7.28976
340 1 19.7959 8.44987 7.6096
341 1 19.8751 8.07796 8.45243
342 1 19.9031 8.93764 8.91528
343 1 20.5256 8.55541 9.53202
344 1 21.005 8.55048 10.384
345 1 21.7714 8.98449 10.6589
346 1 22.594 8.86934 10.268
347 1 22.5387 9.60717 9.69413
348 1 23.2213 9.03006 9.36838
349 1 22.8083 8.77343 8.5765
350 1 22.8481 8.37351 7.76894
351 1 23.7524 8.25655 7.97271
352 1 23.723 9.15201 7.78288
353 1 23.1921 9.55194 7.07907
354 1 22.6867 9.1904 6.35162
355 1 22.5621 9.17711 5.40419
356 1 23.2563 9.3976 4.82287
357 1 23.5519 8.54742 4.51025
358 1 23.4276 7.63503 4.74354
359 1 24.2778 8.03588 5.1217
360 1 25.0975 7.65297 5.38309
361 1 25.6832 8.32892 5.5055
362 1 25.3851 7.99057 6.32463
363 1 25.9302 7.59048 6.99326
364 1 26.5364 8.35569 6.95349
365 1 27.0919 9.06266 7.11303
366 1 27.5154 9.13668 8.0077
367 1 28.1345 9.30189 7.36045
368 1 28.5899 10.0645 7.53928
369 1 29.1378 10.7966 7.31812
370 1 29.3225 11.5864 7.76735
371 1 29.8503 10.8936 8.19637
372 1 30.6162 10.6433 8.57662
373 1 31.3726 10.3867 8.06738
374 1 32.0019 11.0639 7.8428
375 1 32.7686 11.2114 8.34972
376 1 33.3216 10.4948 8.54325
377 1 34.1221 10.9193 8.2012
378 1 34.2107 10.2635 7.58783
379 1 34.7095 9.6958 6.95589
380 1 34.7206 9.24386 6.11559
381 1 35.4898 8.92261 5.65332
382 1 36.3701 8.55142 5.82379
383 1 36.7291 9.31992 6.23123
384 1 37.1114 10.179 6.25511
385 1 37.8695 10.3913 6.78798
386 1 38.4176 11.1395 7.093
387 1 38.2071 11.5306 6.27647
388 1 38.0505 11.1172 5.44178
389 1 38.179 11.6606 4.65497
390 1 38.4976 11.6545 3.79124
391 1 38.4891 10.9057 3.12352
392 1 39.1915 11.0056 2.51668
393 1 40.0086 11.1439 2.92962
394 1 40.7194 11.0227 2.30435
395 1 40.3354 10.8079 1.50226
396 1 39.6141 10.8343 0.801082
397 1 40.139 9.99437 0.92108
398 1 40.2095 9.105 0.55443
399 1 40.6103 8.28358 0.782902
400 1 40.8131 8.51252 1.62981
401 1 41.4843 7.93839 1.32491
402 1 42.2475 7.32583 1.21879
403 1 43.1627 7.3929 0.954804
404 1 44.0878 7.29438 0.607165
405 1 44.5209 7.3964 1.39156
406 1 44.8893 6.75252 2.00825
407 1 44.6567 6.79087 2.94369
408 1 43.9851 7.39523 2.84008
409 1 43.4989 7.40006 3.64153
410 1 42.6226 7.09373 3.63581
411 1 41.865 7.41407 4.12635
412 1 42.4749 8.07627 4.32953
413 1 43.3343 8.42319 4.18515
414 1 44.165 8.28745 3.78851
415 1 44.8214 8.97306 3.82253
416 1 45.5855 8.48892 4.0276
417 1 45.7251 7.67219 4.57969
418 1 45.4234 8.28503 5.26663
419 1 46.2964 8.10615 5.40653
420 1 46.4446 8.08232 6.34307
421 1 46.8347 8.82655 6.76351
422 1 47.439 8.28569 7.25044
423 1 48.1121 9.01693 7.28766
424 1 48.5667 9.23218 6.51932
425 1 49.218 9.83235 6.25114
426 1 50.0826 9.81858 6.60049
427 1 50.2127 9.66732 5.69106
428 1 50.4254 9.74709 4.75109
429 1 50.9365 9.23605 4.06261
430 1 51.4934 8.54436 3.70016
431 1 52.3731 8.36494 3.36646
432 1 52.1991 7.66007 3.94662
433 1 52.9234 7.08765 3.97798
434 1 53.4278 6.59999 4.57325
435 1 53.8394 6.55583 5.41043
436 1 54.7298 6.91375 5.25229
437 1 55.4245 6.84656 5.87585
438 1 56.1523 6.92463 6.42993
439 1 56.3321 6.58925 7.3228
440 1 56.7265 7.15082 7.93818
441 1 57.0192 7.44752 7.11164
442 1 57.2938 6.68133 6.72936
443 1 57.6624 6.72232 7.58433
444 1 58.2462 6.34988 8.18832
445 1 58.3736 5.65374 7.51755
446 1 59.2604 5.8873 7.63894
447 1 59.0235 6.80162 7.74628
448 1 59.2815 7.68278 8.10888
449 1 59.999 8.09986 8.54225
450 1 60.6571 8.64838 8.16887
451 1 61.3079 9.32637 8.18178
452 1 62.2179 9.37434 8.05389
453 1 62.4152 8.43675 7.89677
454 1 62.3212 7.87833 7.13956
455 1 62.8782 8.06554 6.42022
456 1 62.9794 8.40102 5.51454