ITEM: TIMESTEP
30000
ITEM: NUMBER OF ATOMS
512
ITEM: BOX BOUNDS mm mm mm
-2.5600000000000000e+02 2.5600000000000000e+02
-2.5600000000000000e+02 2.5600000000000000e+02
-2.5600000000000000e+02 2.5600000000000000e+02
ITEM: ATOMS id type x y z
1 1 -201.738 -1.63382 -5.56133
2 1 -201.54 -0.73577 -5.58016
3 1 -201.685 0.0146139 -5.05653
4 1 -200.988 0.623845 -5.24406
5 1 -200.706 0.0917357 -5.96028
6 1 -199.837 0.266302 -5.52562
7 1 -198.997 0.49401 -5.81959
8 1 -198.345 1.16372 -5.9158
9 1 -197.663 1.57461 -6.35855
10 1 -197.264 1.49062 -5.51732
11 1 -196.401 1.25792 -5.04093
12 1 -196.239 1.52698 -4.14018
13 1 -196.674 1.51518 -3.31374
14 1 -196.922 1.92761 -2.49477
15 1 -196.254 1.93528 -1.84558
16 1 -196.392 1.34717 -1.06991
17 1 -196.342 0.427575 -0.978418
18 1 -196.188 -0.11239 -1.75546
19 1 -195.418 -0.273134 -1.2624
20 1 -194.64 -0.0320447 -1.73131
21 1 -193.939 -0.657352 -1.56349
22 1 -193.147 -1.1235 -1.40868
23 1 -192.815 -1.79668 -0.815477
24 1 -192.225 -2.26096 -1.38031
25 1 -191.312 -2.04866 -1.62574
26 1 -190.589 -1.49466 -1.5795
27 1 -189.723 -1.21602 -1.86622
28 1 -189.056 -1.62019 -2.40689
29 1 -188.265 -1.10683 -2.30466
30 1 -187.565 -0.767259 -2.9707
31 1 -187.356 -0.360704 -3.84198
32 1 -186.521 -0.776335 -4.15156
33 1 -185.913 -1.0812 -4.78188
34 1 -185.187 -1.67773 -4.90578
35 1 -184.493 -1.1364 -4.56605
36 1 -184.001 -0.321421 -4.81271
37 1 -183.124 -0.665717 -4.6653
38 1 -182.353 -0.163321 -4.70271
39 1 -181.512 -0.615005 -4.94787
40 1 -180.862 -0.934652 -4.39199
41 1 -180.548 -1.21249 -3.54093
42 1 -179.777 -1.03999 -4.07486
43 1 -179.569 -1.66745 -3.48516
44 1 -179.076 -2.17981 -4.09794
45 1 -178.42 -2.2236 -4.76041
46 1 -177.54 -2.49794 -4.57603
47 1 -176.797 -3.04905 -4.41635
48 1 -176.199 -3.09181 -3.65333
49 1 -175.336 -2.78418 -3.45736
50 1 -174.345 -2.52326 -3.38424
51 1 -174.066 -2.06323 -2.67681
52 1 -173.619 -1.35531 -3.01399
53 1 -172.818 -0.807819 -3.04518
54 1 -172.075 -0.23042 -3.05245
55 1 -171.188 -0.434846 -2.92688
56 1 -170.232 -0.286698 -2.94794
57 1 -169.545 0.378435 -3.06701
58 1 -168.749 0.384547 -2.49986
59 1 -167.811 0.132944 -2.44215
60 1 -167.083 -0.372758 -2.10662
61 1 -166.146 -0.301629 -2.03417
62 1 -165.22 0.0190284 -1.81259
63 1 -164.53 -0.372101 -2.2475
64 1 -163.769 0.177539 -2.12444
65 1 -162.994 0.626985 -2.1136
66 1 -162.369 1.23874 -2.51334
67 1 -161.692 1.2331 -1.8278
68 1 -160.746 1.07692 -1.66462
69 1 -160.129 1.7574 -1.90782
70 1 -159.191 1.70867 -2.08498
71 1 -158.344 2.21259 -2.12203
72 1 -157.469 2.48806 -1.75828
73 1 -156.767 1.97189 -1.39322
74 1 -155.925 1.73528 -1.09217
75 1 -155.167 2.23571 -1.1408
76 1 -154.304 2.0725 -0.791072
77 1 -153.416 2.15774 -0.288713
78 1 -152.866 2.88057 -0.474787
79 1 -152.262 2.17396 -0.709949
80 1 -151.468 2.45059 -0.292403
81 1 -150.522 2.57108 -0.31771
82 1 -149.731 2.12499 -0.193407
83 1 -148.929 2.24658 0.188128
84 1 -147.937 2.31374 0.132402
85 1 -147.117 2.02988 -0.270754
86 1 -146.249 2.17219 -0.661447
87 1 -145.322 2.05958 -0.97666
88 1 -144.531 2.42102 -0.501212
89 1 -143.637 2.28542 -0.553203
90 1 -142.757 2.59334 -0.563246
91 1 -141.797 2.68621 -0.709932
92 1 -140.957 3.02812 -1.02238
93 1 -140.43 2.3653 -1.35568
94 1 -139.463 2.35938 -1.39339
95 1 -138.552 2.41463 -1.12826
96 1 -137.652 2.70058 -1.03155
97 1 -136.695 2.81599 -1.10705
98 1 -135.882 2.62602 -1.52231
99 1 -134.959 2.77659 -1.42847
100 1 -134.048 2.96785 -1.37734
101 1 -133.337 2.40244 -1.33473
102 1 -133.215 2.32459 -0.379487
103 1 -132.302 2.18548 -0.503202
104 1 -131.541 1.9814 -0.971047
105 1 -130.627 2.14762 -1.09723
106 1 -129.67 2.04351 -1.19689
107 1 -128.736 2.15287 -0.999021
108 1 -127.833 1.98383 -1.16522
109 1 -126.893 2.17992 -1.15736
110 1 -125.99 2.25115 -1.44778
111 1 -125.205 1.96237 -1.08798
112 1 -124.579 2.59427 -0.752111
113 1 -123.702 2.30655 -0.925387
114 1 -122.816 2.59647 -0.942421
115 1 -121.982 2.84298 -0.61033
116 1 -121.143 3.11274 -0.970897
117 1 -120.253 3.09631 -0.821038
118 1 -119.318 3.20058 -0.586791
119 1 -118.447 3.29179 -0.858368
120 1 -117.506 3.27318 -0.750311
121 1 -116.721 3.8176 -0.783359
122 1 -115.812 3.77692 -1.04566
123 1 -114.862 3.66019 -1.04478
124 1 -113.966 3.99236 -1.15512
125 1 -113.096 3.69586 -1.46594
126 1 -112.292 4.08354 -1.19276
127 1 -111.451 4.03072 -0.85309
128 1 -110.615 3.81208 -1.22902
129 1 -109.739 3.94317 -0.858963
130 1 -108.835 3.77707 -0.612693
131 1 -107.908 3.7699 -0.996727
132 1 -107.025 3.84264 -0.673923
133 1 -106.139 4.13166 -0.379235
134 1 -105.709 4.44257 0.440352
135 1 -104.803 4.38817 0.732301
136 1 -103.851 4.30968 0.945469
137 1 -103.123 4.65492 1.35974
138 1 -102.209 4.46481 1.41645
139 1 -101.326 4.46064 1.68789
140 1 -100.495 4.38637 2.15531
141 1 -99.8713 4.55017 1.53695
142 1 -99.087 4.20378 1.96321
143 1 -98.1558 4.19627 1.85389
144 1 -97.2259 4.28942 1.97268
145 1 -96.3213 3.95482 2.0087
146 1 -95.3605 3.88294 2.25387
147 1 -94.515 3.49383 2.38913
148 1 -93.6199 3.60032 2.04127
149 1 -92.7147 3.58175 1.8309
150 1 -91.8283 3.6665 1.49891
151 1 -90.8683 3.51561 1.41062
152 1 -90.0837 3.54737 0.916875
153 1 -89.4669 3.16707 1.56092
154 1 -88.6723 3.27513 2.02376
155 1 -87.769 3.10232 1.99568
156 1 -87.0332 3.65657 2.11422
157 1 -86.233 3.96621 1.79814
158 1 -85.3382 3.6245 1.6324
159 1 -84.4309 3.87193 1.98186
160 1 -83.4457 3.92453 2.22615
161 1 -82.6606 3.40028 2.28957
162 1 -81.6704 3.51845 2.43795
163 1 -80.7392 3.7351 2.30737
164 1 -79.7957 3.80592 2.41838
165 1 -78.8865 3.53836 2.52986
166 1 -78.001 3.29457 2.24216
167 1 -77.1959 3.87321 2.02988
168 1 -76.3853 4.24926 1.74892
169 1 -75.4807 4.23603 1.61101
170 1 -74.645 3.96009 1.31485
171 1 -73.7307 3.79171 1.08367
172 1 -72.8395 3.77333 0.785255
173 1 -71.9995 3.97143 1.10785
174 1 -71.2124 3.49152 1.24851
175 1 -70.2815 3.4087 0.976724
176 1 -69.4481 3.17835 1.19026
177 1 -68.5945 2.80317 1.13598
178 1 -67.7635 3.15029 1.46467
179 1 -66.9463 3.55894 1.52815
180 1 -66.1012 3.20468 1.60166
181 1 -65.26 3.62999 1.76907
182 1 -64.3268 3.52535 1.87267
183 1 -63.4693 3.35269 1.59306
184 1 -62.5186 3.68487 1.42912
185 1 -61.6767 3.6926 1.82385
186 1 -60.7955 3.69014 2.21075
187 1 -60.1756 4.17381 2.86058
188 1 -59.4087 3.76388 2.31062
189 1 -58.5959 4.04663 2.05281
190 1 -57.9292 4.00209 2.64947
191 1 -56.9961 4.21683 2.86613
192 1 -56.2183 3.80705 3.22304
193 1 -55.3391 3.42214 2.95613
194 1 -54.4112 3.48993 2.78735
195 1 -53.6359 3.34806 3.25723
196 1 -52.7382 3.12119 2.94175
197 1 -51.81 3.20326 3.07704
198 1 -50.9763 3.36054 3.35569
199 1 -50.3146 2.9809 2.75979
200 1 -49.4749 3.04451 2.45696
201 1 -48.461 3.32448 2.53226
202 1 -47.5036 3.35045 2.53127
203 1 -46.5907 3.58423 2.34321
204 1 -45.7971 3.16369 2.54967
205 1 -44.8313 3.2329 2.70324
206 1 -43.9306 3.32725 3.11594
207 1 -43.0924 3.01289 3.0055
208 1 -42.1042 3.0259 2.84563
209 1 -41.1738 2.93803 2.76971
210 1 -40.3367 2.93285 2.27016
211 1 -39.3894 3.14592 2.49877
212 1 -38.4299 3.16348 2.67458
213 1 -37.6542 3.1292 2.14311
214 1 -36.7455 3.00027 2.13067
215 1 -35.763 2.86964 2.0994
216 1 -34.8899 2.70794 1.61483
217 1 -33.952 2.61064 1.77594
218 1 -33.0371 2.72369 1.77711
219 1 -32.1381 2.4354 1.61619
220 1 -31.4278 1.86711 1.93123
221 1 -30.5961 1.83429 2.38105
222 1 -29.6588 1.86651 2.04757
223 1 -28.6854 2.0206 2.13173
224 1 -27.7235 2.08615 1.92193
225 1 -26.8901 1.79182 2.19503
226 1 -26.0113 1.40539 1.96338
227 1 -25.2394 1.79901 1.53247
228 1 -24.2899 1.97582 1.8272
229 1 -23.4096 1.78964 1.90734
230 1 -22.5347 1.93594 1.47228
231 1 -21.6527 1.83354 1.6951
232 1 -20.7871 1.7661 2.02236
233 1 -19.8522 1.91079 2.04176
234 1 -18.9308 1.93739 1.80416
235 1 -18.2072 2.18187 1.20892
236 1 -17.3162 2.11732 1.1893
237 1 -16.3588 1.93354 1.15693
238 1 -15.6231 1.67825 1.61822
239 1 -14.7829 1.33777 1.60015
240 1 -13.8183 1.54425 1.69477
241 1 -12.9469 1.87057 1.57693
242 1 -12.043 1.59999 1.59373
243 1 -11.1239 1.69234 1.78567
244 1 -10.3402 1.9551 1.40031
245 1 -9.47572 2.13789 1.04978
246 1 -8.52341 2.27172 1.33009
247 1 -7.68958 2.29158 0.964698
248 1 -6.80345 2.36752 1.34442
249 1 -5.92751 2.35852 1.66747
250 1 -5.05492 2.6048 1.3049
251 1 -4.15544 2.65228 1.02994
252 1 -3.23248 2.52454 1.25203
253 1 -2.35493 2.65407 1.58439
254 1 -1.44403 2.55946 1.82252
255 1 -0.675554 2.42208 1.32357
256 1 0.00396131 2.1759 0.631909
257 1 0.84778 1.72743 0.495055
258 1 1.72632 1.46671 0.434076
259 1 2.4031 0.819542 0.388975
260 1 3.32948 0.95632 0.541494
261 1 4.29689 1.07346 0.603194
262 1 5.18475 1.19707 0.91131
263 1 6.09257 0.910611 0.884934
264 1 7.00519 0.84335 1.01227
265 1 7.92748 0.695102 1.10145
266 1 8.50319 0.359678 1.80116
267 1 9.39721 0.386089 1.56146
268 1 10.3232 0.192587 1.37002
269 1 11.1539 0.726248 1.20894
270 1 12.0877 0.541501 1.34675
271 1 13.0369 0.229492 1.36588
272 1 13.9383 -0.048829 1.34241
273 1 14.8247 0.390865 1.46192
274 1 15.7376 0.196509 1.34061
275 1 16.6601 0.31864 1.23487
276 1 17.581 0.296733 1.62497
277 1 18.5127 0.596629 1.44756
278 1 19.4448 0.658873 1.47128
279 1 20.2841 0.641509 1.81238
280 1 21.2078 0.577163 1.70716
281 1 22.1843 0.767915 1.95677
282 1 23.1237 0.86498 1.86293
283 1 23.9738 1.3022 1.69019
284 1 24.7597 1.63293 1.29013
285 1 25.6091 1.26564 1.32661
286 1 26.4697 0.991195 1.67631
287 1 27.4132 1.169 1.58364
288 1 28.3686 1.03257 1.56627
289 1 29.147 0.537117 1.5322
290 1 30.0242 0.424378 1.16177
291 1 30.9411 0.371369 1.24046
292 1 31.7039 0.125449 1.69402
293 1 32.5314 0.481861 1.26704
294 1 33.3745 0.768543 1.50478
295 1 34.0744 0.328146 1.10889
296 1 35.0369 0.275795 0.984778
297 1 35.8823 0.400794 1.42258
298 1 36.6624 0.859411 1.05652
299 1 37.6485 0.940058 1.16172
300 1 38.5891 1.00014 0.923697
301 1 39.5308 1.15716 0.94338
302 1 40.4044 1.24454 0.533401
303 1 41.3335 0.816952 0.43574
304 1 42.2381 0.575595 0.436304
305 1 43.1439 0.636183 0.230625
306 1 44.0385 0.729993 0.0110349
307 1 44.7918 0.137249 -0.0705922
308 1 45.545 0.44107 0.439665
309 1 46.5093 0.459709 0.57166
310 1 47.4392 0.42674 0.597106
311 1 48.3147 0.34325 0.91339
312 1 49.1094 -0.191126 0.983855
313 1 50.0748 -0.0711019 0.696221
314 1 50.9742 -0.0250473 0.515991
315 1 51.8807 0.105608 0.2981
316 1 52.6654 0.661729 0.301183
317 1 53.6246 0.463552 0.469688
318 1 54.5539 0.344747 0.445557
319 1 55.4707 0.583917 0.717784
320 1 56.3098 1.03178 0.802734
321 1 57.0645 1.30272 1.30084
322 1 58.0229 1.29296 1.32508
323 1 59.017 1.34102 1.44976
324 1 59.9374 1.38378 1.40011
325 1 60.909 1.49422 1.41404
326 1 61.7277 1.25655 1.91251
327 1 62.5743 1.1803 2.17127
328 1 63.4562 0.862334 1.98458
329 1 64.418 1.05199 2.03279
330 1 65.3647 1.21816 2.13005
331 1 66.229 1.33316 2.64599
332 1 67.1804 1.25069 2.5071
333 1 68.1036 0.885663 2.60902
334 1 68.4966 1.35783 1.94659
335 1 69.3373 1.57515 2.35417
336 1 70.2606 1.62262 2.34302
337 1 71.185 1.79565 2.01715
338 1 71.9154 1.20078 1.97742
339 1 72.8586 1.12472 1.72054
340 1 73.7005 0.953093 1.34139
341 1 74.6135 1.24882 1.25931
342 1 75.5885 0.977201 1.36155
343 1 76.4718 1.18154 1.20441
344 1 77.3851 1.20319 0.877349
345 1 77.9853 1.80995 0.513129
346 1 78.6063 2.2344 -0.00450713
347 1 79.5936 2.41782 -0.239372
348 1 80.2028 1.81443 0.24434
349 1 80.9801 2.3666 0.0749814
350 1 81.9755 2.46901 -0.0204123
351 1 82.962 2.35888 0.109994
352 1 83.9212 2.1528 0.256057
353 1 84.5753 1.94502 -0.413081
354 1 85.4641 2.05064 -0.0100303
355 1 86.454 1.87115 -0.0177242
356 1 87.3183 1.66724 -0.304638
357 1 88.1835 1.34298 -0.0180992
358 1 89.1415 1.56711 -0.0627332
359 1 90.0407 1.74293 0.0555809
360 1 90.9376 1.56501 0.128622
361 1 91.8706 1.23742 0.142847
362 1 92.7589 1.09629 0.00509175
363 1 93.6917 0.975447 -0.191772
364 1 94.3383 0.484109 0.245046
365 1 95.1757 0.103091 -0.021781
366 1 96.0476 -0.0877278 0.179382
367 1 96.8913 -0.612447 0.127436
368 1 97.8056 -0.878459 0.230396
369 1 98.5627 -0.34884 0.194428
370 1 99.3873 0.0557463 0.155033
371 1 100.272 -0.123525 -0.0555691
372 1 101.184 -0.0510542 0.0929174
373 1 102.086 -0.202618 -0.266675
374 1 103.003 0.0542692 -0.27035
375 1 103.745 0.169057 0.268674
376 1 104.662 0.364128 0.514254
377 1 105.467 0.210073 0.968255
378 1 106.263 -0.255036 0.771355
379 1 107.139 -0.704642 0.759011
380 1 107.819 -0.1076 0.684172
381 1 108.769 -0.375397 0.932092
382 1 109.459 -0.353167 0.243195
383 1 110.314 -0.518278 -0.0908389
384 1 111.207 -0.584923 -0.449912
385 1 112.09 -0.26509 -0.300881
386 1 113.006 -0.083978 -0.527994
387 1 113.725 -0.681842 -0.59169
388 1 114.611 -0.661705 -0.704767
389 1 115.418 -0.282636 -1.15451
390 1 116.34 -0.0478403 -1.02581
391 1 117.311 -0.191864 -1.016
392 1 118.198 0.167216 -1.09341
393 1 119.076 -0.226073 -1.16704
394 1 119.932 -0.581488 -1.24766
395 1 120.89 -0.359561 -1.27762
396 1 121.838 -0.382902 -1.40012
397 1 122.727 -0.643063 -1.3734
398 1 123.625 -0.416087 -1.60232
399 1 124.571 -0.499545 -1.71548
400 1 125.435 -0.238097 -1.35624
401 1 126.407 -0.224242 -1.2087
402 1 127.321 -0.0796649 -1.0674
403 1 128.055 -0.40143 -1.57078
404 1 128.994 -0.259267 -1.51542
405 1 129.938 -0.192905 -1.61226
406 1 130.684 -0.71122 -1.66011
407 1 131.43 -0.133582 -1.55755
408 1 132.38 -0.288407 -1.53521
409 1 133.278 -0.460081 -1.78185
410 1 134.013 -1.07197 -1.78073
411 1 134.967 -1.13361 -1.80884
412 1 135.899 -0.974456 -1.99868
413 1 136.862 -1.0197 -1.94763
414 1 137.626 -1.45845 -2.39022
415 1 138.488 -1.10512 -2.49596
416 1 139.365 -1.01619 -2.82425
417 1 140.128 -1.47759 -2.55722
418 1 140.904 -1.47192 -3.04127
419 1 141.496 -1.82441 -3.68755
420 1 142.354 -1.45315 -3.6169
421 1 143.149 -1.08034 -3.19718
422 1 144.013 -0.699522 -3.24157
423 1 144.884 -0.972557 -3.15602
424 1 145.754 -1.15643 -2.90999
425 1 146.622 -1.16594 -3.2649
426 1 147.489 -1.19777 -3.5298
427 1 148.274 -0.790215 -3.25738
428 1 149.192 -0.852718 -2.93709
429 1 149.976 -0.874584 -2.44954
430 1 150.878 -0.718812 -2.77463
431 1 151.666 -1.10591 -3.18019
432 1 152.585 -0.936795 -3.03734
433 1 153.526 -0.985807 -2.91269
434 1 154.268 -0.37986 -2.77259
435 1 155.228 -0.404529 -2.80887
436 1 155.947 -0.887151 -2.47017
437 1 156.878 -1.00194 -2.31103
438 1 157.562 -0.690287 -1.72125
439 1 158.409 -0.756123 -1.41108
440 1 159.233 -0.496974 -1.03591
441 1 160.181 -0.50182 -1.13446
442 1 161.162 -0.169944 -0.962823
443 1 162.079 -0.169085 -0.900025
444 1 162.832 -0.22872 -0.263971
445 1 163.701 -0.466064 -0.509723
446 1 164.584 -0.308919 -0.759208
447 1 164.982 -1.13579 -0.70452
448 1 165.691 -0.62338 -1.06784
449 1 166.502 -0.474131 -1.58355
450 1 167.26 -0.529324 -2.08429
451 1 167.671 0.000828113 -2.7642
452 1 168.622 -0.131016 -2.65169
453 1 169.542 -0.182946 -2.60058
454 1 170.508 -0.197944 -2.2589
455 1 171.349 -0.326984 -1.88032
456 1 172.344 -0.56778 -1.72083
457 1 173.241 -0.553492 -1.43149
458 1 174.068 -0.501289 -0.992738
459 1 174.953 -0.639419 -0.77318
460 1 175.87 -0.643814 -0.431645
461 1 176.399 0.103484 -0.629822
462 1 177.166 0.42195 -1.02725
463 1 177.981 0.324927 -0.573637
464 1 178.855 0.494606 -0.340682
465 1 179.719 0.897509 -0.320101
466 1 180.638 0.813516 -0.434924
467 1 181.534 0.508601 -0.556686
468 1 181.974 1.04629 0.0919069
469 1 182.91 1.13908 0.188209
470 1 183.76 0.754055 -0.00496526
471 1 184.495 1.28908 -0.130964
472 1 185.397 1.73631 -0.130509
473 1 186.179 1.96089 -0.561626
474 1 187.073 2.28198 -0.572748
475 1 187.618 2.50646 0.180176
476 1 188.604 2.45899 0.131395
477 1 189.276 2.39686 0.81471
478 1 189.879 3.1526 0.791356
479 1 190.756 2.88591 0.671889
480 1 190.944 3.78709 0.61206
481 1 191.903 3.92127 0.555652
482 1 192.549 3.41198 1.00669
483 1 192.977 4.07509 1.47793
484 1 193.6 3.98697 0.799554
485 1 194.385 3.61385 0.294923
486 1 195.348 3.76441 0.370635
487 1 196.283 3.7688 0.355364
488 1 197.163 3.76425 0.790606
489 1 197.98 3.65218 1.29062
490 1 198.419 2.9901 0.70147
491 1 199.281 3.28362 0.354996
492 1 199.491 3.63299 1.27147
493 1 200.195 3.26224 1.74009
494 1 201.142 3.33283 1.69827
495 1 201.956 3.77719 1.73375
496 1 202.843 3.8623 2.05839
497 1 203.162 3.81505 1.16899
498 1 203.758 4.11167 0.467029
499 1 204.558 4.38761 0.0574315
500 1 205.37 4.65016 0.567901
501 1 205.835 4.74368 -0.255559
502 1 206.763 4.75649 -0.116873
503 1 207.693 4.75306 -0.0185823
504 1 208.562 4.91999 0.269632
505 1 209.124 5.05825 1.01592
506 1 210.031 5.07906 1.3099
507 1 209.864 5.95256 1.2783
508 1 209.972 6.74078 1.85789
509 1 210.188 7.53268 1.35148
510 1 210.583 8.30488 1.73974
511 1 210.178 8.61994 0.929272
512 1 209.207 8.58211 0.66145
ITEM: TIMESTEP
40000
ITEM: NUMBER OF ATOMS
512
ITEM: BOX BOUNDS mm mm mm
-2.5600000000000000e+02 2.5600000000000000e+02
-2.5600000000000000e+02 2.5600000000000000e+02
-2.5600000000000000e+02 2.5600000000000000e+02
ITEM: ATOMS id type x y z
1 1 -190.239 2.2076 -1.01222
2 1 -190.57 1.96473 -0.17884
3 1 -191.024 1.33135 0.310735
4 1 -191.19 1.75105 1.14131
5 1 -190.614 1.24 1.6833
6 1 -190.121 1.0422 0.91349
7 1 -190.25 0.297698 0.448665
8 1 -190.388 -0.228708 -0.298366
9 1 -190.377 -1.16349 -0.389652
10 1 -189.483 -1.35334 -0.399245
11 1 -189.427 -2.28557 -0.451323
12 1 -188.713 -2.76418 -0.829048
13 1 -187.993 -3.30886 -0.529181
14 1 -187.423 -2.86537 0.0304601
15 1 -186.765 -3.11055 0.606094
16 1 -186.04 -2.66191 0.95452
17 1 -185.379 -3.05893 0.330557
18 1 -184.919 -3.28525 1.11377
19 1 -184.557 -3.8764 0.47194
20 1 -183.689 -4.24731 0.506815
21 1 -182.778 -4.30606 0.264372
22 1 -183.08 -4.81318 -0.478104
23 1 -182.127 -4.8544 -0.527642
24 1 -181.364 -4.65099 -1.01148
25 1 -180.585 -4.24688 -1.26367
26 1 -180.263 -4.2937 -0.410636
27 1 -180.157 -3.48515 -0.0224869
28 1 -179.304 -3.45827 -0.48456
29 1 -178.555 -3.02863 -0.976677
30 1 -178.075 -3.32501 -0.272703
31 1 -178.195 -2.45566 0.116943
32 1 -178.342 -1.53902 0.296835
33 1 -177.389 -1.83522 0.235741
34 1 -177.004 -1.04212 0.580094
35 1 -176.242 -1.52055 0.24589
36 1 -175.277 -1.47092 0.173983
37 1 -175.003 -1.79619 1.04102
38 1 -174.405 -2.53803 1.16931
39 1 -173.832 -2.90402 0.455555
40 1 -173.678 -1.97661 0.452691
41 1 -172.784 -1.753 0.182127
42 1 -171.865 -1.84415 0.448294
43 1 -171.147 -1.23663 0.596465
44 1 -170.315 -0.871282 0.202198
45 1 -169.556 -0.625789 0.635576
46 1 -169.07 -0.0504762 0.151885
47 1 -168.364 -0.0540575 -0.478168
48 1 -167.714 0.301504 -1.08583
49 1 -167.185 1.08286 -0.940764
50 1 -166.659 1.80268 -1.16108
51 1 -165.898 2.24117 -1.45764
52 1 -165.112 2.01225 -0.940537
53 1 -164.559 1.87195 -0.220112
54 1 -164.104 1.57455 -1.05044
55 1 -163.177 1.69612 -1.3193
56 1 -162.832 1.39625 -2.11589
57 1 -162.502 1.0439 -2.95112
58 1 -161.582 1.23579 -2.98522
59 1 -160.689 1.39262 -3.21364
60 1 -160.212 1.25152 -2.45241
61 1 -159.359 1.59917 -2.61358
62 1 -158.915 2.13787 -3.26491
63 1 -158.105 2.05921 -2.74373
64 1 -157.318 2.38841 -2.4395
65 1 -156.721 1.70361 -2.67822
66 1 -156.001 1.12581 -2.93323
67 1 -155.461 0.780224 -2.24536
68 1 -154.819 0.297123 -1.77618
69 1 -153.915 0.523779 -2.00076
70 1 -152.962 0.393228 -2.31782
71 1 -152.109 0.721932 -2.10491
72 1 -151.422 1.22955 -1.71742
73 1 -150.549 1.423 -2.1344
74 1 -149.71 1.18627 -2.55244
75 1 -148.798 1.07728 -2.6135
76 1 -148.324 1.06571 -3.47371
77 1 -147.799 1.51637 -2.8601
78 1 -147.095 1.9838 -2.39576
79 1 -146.564 1.19643 -2.29831
80 1 -145.729 1.23785 -2.70804
81 1 -144.814 1.33102 -2.51665
82 1 -144.035 1.07309 -2.08228
83 1 -143.121 0.745164 -2.19114
84 1 -142.228 0.805243 -2.48578
85 1 -141.348 0.428418 -2.46322
86 1 -140.398 0.549148 -2.68062
87 1 -139.619 0.864859 -2.27284
88 1 -138.912 0.54328 -2.85092
89 1 -138.107 0.150857 -3.16467
90 1 -137.411 -0.151514 -3.76958
91 1 -136.64 0.154384 -3.34912
92 1 -135.815 0.501308 -3.72619
93 1 -135.143 0.545506 -3.0015
94 1 -134.275 0.478679 -2.67598
95 1 -133.723 0.300735 -2.00605
96 1 -132.85 0.248088 -2.20251
97 1 -132.485 1.10574 -2.05918
98 1 -131.593 0.7827 -1.89246
99 1 -130.855 1.05945 -2.4556
100 1 -130.055 0.575769 -2.24962
101 1 -129.414 1.25504 -2.00531
102 1 -128.519 1.38377 -1.87815
103 1 -127.618 1.04917 -1.87366
104 1 -126.815 1.38652 -1.6048
105 1 -126.093 1.72482 -1.00966
106 1 -125.271 2.05403 -0.647245
107 1 -124.318 2.33052 -0.757029
108 1 -123.555 2.39237 -0.237509
109 1 -122.871 2.86226 0.214547
110 1 -121.943 3.05619 0.318453
111 1 -121.128 2.98742 0.824309
112 1 -120.487 3.56499 0.441119
113 1 -119.542 3.42518 0.612891
114 1 -119.017 3.83148 -0.0703781
115 1 -118.186 3.91613 0.368922
116 1 -117.29 3.71768 0.594031
117 1 -116.62 3.13929 0.809108
118 1 -115.68 3.14592 0.534105
119 1 -114.807 3.22956 0.234843
120 1 -113.952 3.60452 0.0876581
121 1 -113.313 3.54173 0.816277
122 1 -112.396 3.86194 0.978557
123 1 -111.528 4.25334 1.01359
124 1 -110.862 4.89984 0.57805
125 1 -110.103 4.50872 0.151645
126 1 -109.567 3.87166 -0.218859
127 1 -108.642 4.01417 -0.351849
128 1 -107.963 3.46294 0.068144
129 1 -107.103 3.14532 0.32535
130 1 -106.365 3.53886 0.786789
131 1 -105.591 3.50526 1.36112
132 1 -104.751 3.3713 1.75886
133 1 -103.823 3.24157 1.70549
134 1 -102.942 3.00167 1.36013
135 1 -102.111 3.14113 1.78419
136 1 -101.132 3.10635 1.7546
137 1 -100.234 2.91605 1.56236
138 1 -99.353 3.07554 1.51351
139 1 -98.5171 2.5845 1.46187
140 1 -97.5738 2.66731 1.38025
141 1 -97.5378 3.63844 1.38941
142 1 -96.6244 3.45087 1.41007
143 1 -95.7039 3.33453 1.45355
144 1 -95.1487 2.60961 1.33826
145 1 -94.3061 2.2475 1.19459
146 1 -93.3821 2.44567 1.46526
147 1 -92.4411 2.11349 1.48726
148 1 -91.5762 1.81314 1.27139
149 1 -90.6896 1.64712 1.04632
150 1 -89.7378 1.60313 1.19408
151 1 -88.8667 1.74203 1.21744
152 1 -87.909 1.68209 1.22385
153 1 -86.973 1.4982 1.57083
154 1 -86.0239 1.29648 1.64726
155 1 -85.0961 1.339 1.78257
156 1 -84.2679 1.39019 2.24764
157 1 -83.3779 1.38581 1.98687
158 1 -82.4378 1.52693 1.89494
159 1 -81.6331 1.58902 1.4646
160 1 -80.6804 1.62722 1.51589
161 1 -79.8408 1.3574 1.18999
162 1 -78.8877 1.23281 1.27733
163 1 -77.8896 1.28499 1.2441
164 1 -77.2145 1.71119 1.71623
165 1 -76.3126 1.81667 2.09799
166 1 -75.4847 1.57555 2.44345
167 1 -74.5538 1.90162 2.43579
168 1 -73.6311 1.8153 2.22858
169 1 -72.9217 2.21401 1.77978
170 1 -72.0832 2.00001 2.21428
171 1 -71.1643 2.12198 2.38035
172 1 -70.5615 2.33251 1.64877
173 1 -69.8525 2.9113 1.42304
174 1 -69.0176 2.99919 0.955209
175 1 -68.1508 2.95384 1.44288
176 1 -67.2696 2.60834 1.42097
177 1 -66.3417 2.48309 1.5211
178 1 -65.4148 2.47183 1.57837
179 1 -64.3958 2.57776 1.54921
180 1 -63.4364 2.35774 1.5748
181 1 -62.7023 2.23349 2.14623
182 1 -61.9028 1.92835 2.46347
183 1 -61.0561 1.56495 2.73349
184 1 -60.2045 1.85438 2.3753
185 1 -59.2541 1.52597 2.19421
186 1 -58.3708 1.75701 1.95982
187 1 -57.5123 1.89091 2.17142
188 1 -56.8287 2.20947 2.78578
189 1 -55.8858 2.22047 2.67536
190 1 -55.0982 2.52695 2.26681
191 1 -54.1919 2.39388 2.04797
192 1 -53.2817 2.26897 2.28343
193 1 -52.3384 2.40052 2.41367
194 1 -51.5313 2.8059 2.10935
195 1 -50.8678 3.35411 1.73682
196 1 -50.0816 3.83082 1.83683
197 1 -49.1744 4.06079 1.83366
198 1 -48.2851 4.13588 1.54438
199 1 -47.4082 4.29265 1.25507
200 1 -46.4406 4.39391 1.17437
201 1 -45.7244 4.71413 0.760679
202 1 -44.8192 4.49508 0.984772
203 1 -43.9583 4.85046 1.17826
204 1 -42.9561 4.7179 1.13117
205 1 -42.1132 4.40382 1.40806
206 1 -41.2704 4.21048 1.74129
207 1 -40.3002 4.0624 1.68364
208 1 -39.3902 4.42053 1.81527
209 1 -38.4836 4.28969 2.12008
210 1 -37.583 4.12751 2.02148
211 1 -36.7581 4.18241 2.42867
212 1 -35.9498 3.86314 2.79508
213 1 -35.0476 3.76521 2.74862
214 1 -34.2086 3.30447 2.63094
215 1 -33.3953 2.86892 2.81204
216 1 -32.5411 3.25245 2.86707
217 1 -31.7471 2.92287 2.98867
218 1 -30.8502 3.37123 3.06427
219 1 -30.1629 2.93799 2.55876
220 1 -29.5295 2.37365 2.94354
221 1 -28.5645 2.62988 2.94873
222 1 -27.6606 2.34961 3.02443
223 1 -26.707 2.31974 2.94753
224 1 -25.8163 2.39063 2.59701
225 1 -25.0377 2.61569 3.11016
226 1 -24.2359 2.05967 2.95326
227 1 -23.3809 2.32168 2.55086
228 1 -22.5121 1.95555 2.63038
229 1 -21.7016 1.46433 2.69973
230 1 -20.8242 1.24858 2.35151
231 1 -19.9554 1.05899 1.97368
232 1 -19.0273 1.08253 1.64443
233 1 -18.1095 1.21083 1.61995
234 1 -17.3124 0.88209 2.00209
235 1 -16.4199 0.798821 2.21253
236 1 -15.8604 0.130407 2.57946
237 1 -14.9926 0.0632265 2.11594
238 1 -14.2144 0.124723 1.60106
239 1 -13.466 0.589028 1.26037
240 1 -12.5959 0.988144 1.09703
241 1 -11.6336 1.02535 0.91093
242 1 -10.8614 1.1288 0.393854
243 1 -9.92801 1.04283 0.313473
244 1 -9.08095 0.561831 0.593267
245 1 -8.5052 -0.0116166 0.992435
246 1 -7.60724 -0.267553 0.987905
247 1 -6.86895 -0.747596 0.628198
248 1 -6.03677 -0.357658 0.966292
249 1 -5.12986 -0.534333 1.26253
250 1 -4.31406 -0.766845 1.73762
251 1 -3.38002 -0.939494 1.94654
252 1 -3.04294 -1.41102 1.17655
253 1 -2.22537 -1.17281 1.57669
254 1 -1.30718 -1.37322 1.81019
255 1 -0.405199 -1.47726 1.59147
256 1 0.494024 -1.33653 1.35349
257 1 1.32182 -1.53619 1.77943
258 1 2.12996 -2.03574 1.87148
259 1 3.04878 -2.25764 1.77109
260 1 3.48644 -1.45603 1.44356
261 1 4.33469 -1.17739 1.65942
262 1 5.25709 -1.18493 1.47482
263 1 6.07125 -1.1785 1.03845
264 1 6.88197 -1.54659 0.654189
265 1 7.76984 -1.40305 0.888166
266 1 8.68099 -1.23736 1.0086
267 1 9.56492 -1.3021 0.67088
268 1 10.4508 -1.54266 0.718191
269 1 11.1361 -0.967489 1.00789
270 1 12.0519 -0.803396 1.27373
271 1 12.8767 -0.638062 0.972088
272 1 13.7866 -0.708231 0.922489
273 1 14.7178 -0.738858 0.735703
274 1 15.5316 -0.4659 0.258201
275 1 16.4454 -0.0913493 0.227531
276 1 17.1701 0.431582 0.0245631
277 1 17.9384 -0.104913 0.122096
278 1 18.8124 -0.485047 0.132085
279 1 19.6937 -0.35889 0.483753
280 1 20.6756 -0.600824 0.330877
281 1 21.4962 -0.917242 0.526871
282 1 22.3371 -0.686515 1.02736
283 1 23.1459 -0.781253 1.38595
284 1 23.8996 -0.296977 1.69108
285 1 24.8407 -0.112774 1.77345
286 1 25.5968 0.332579 1.43263
287 1 26.4709 0.148573 1.02629
288 1 27.4369 0.128578 1.09752
289 1 28.3542 0.214735 1.07005
290 1 29.237 -0.0478699 1.14797
291 1 30.0359 -0.306184 0.742012
292 1 30.8904 0.17333 0.798506
293 1 31.7328 0.402075 0.502467
294 1 32.6461 0.29613 0.410129
295 1 33.6209 0.163184 0.411952
296 1 34.4971 0.130794 0.889849
297 1 35.3982 -0.0106059 1.09664
298 1 36.3241 0.287849 1.3275
299 1 37.2607 0.268909 1.21734
300 1 38.1691 0.62228 1.09479
301 1 39.0497 0.85 0.895864
302 1 39.9901 0.882704 0.746123
303 1 40.941 0.869187 0.670201
304 1 41.8452 1.09002 0.356127
305 1 42.5909 1.65968 0.209111
306 1 43.5035 1.62927 0.371235
307 1 44.455 1.55632 0.101822
308 1 45.4001 1.49418 0.0908301
309 1 46.3742 1.46421 0.157782
310 1 47.2629 1.21032 0.151755
311 1 48.0101 0.843698 -0.171677
312 1 48.9287 0.771246 -0.386042
313 1 49.7896 0.451023 -0.546667
314 1 50.638 0.569606 -0.0868964
315 1 51.3344 1.05045 0.249089
316 1 52.1122 0.591649 0.554159
317 1 53.1169 0.573067 0.497463
318 1 53.9791 0.624277 0.728176
319 1 54.7079 0.631683 1.29615
320 1 55.3762 0.533407 0.642892
321 1 56.2894 0.630041 0.335169
322 1 57.2576 0.505153 0.209693
323 1 58.1003 0.457345 -0.277471
324 1 58.7832 -0.165893 -0.444489
325 1 59.7262 -0.143005 -0.670038
326 1 60.6637 -0.132548 -0.871454
327 1 61.5028 -0.500585 -0.67033
328 1 62.4152 -0.272098 -0.340988
329 1 63.1946 -0.54806 0.0347353
330 1 63.3012 -0.404588 0.969721
331 1 64.1367 -0.518087 0.505494
332 1 65.1367 -0.400782 0.722931
333 1 66.0516 -0.206207 0.374845
334 1 66.9045 -0.0647247 0.796446
335 1 67.6994 -0.438372 1.07226
336 1 68.4161 -1.01761 1.33455
337 1 69.361 -0.765826 1.35034
338 1 70.1729 -0.455609 1.77413
339 1 71.0964 -0.453382 2.11751
340 1 72.0412 -0.29369 2.12179
341 1 72.9417 0.0920144 2.02959
342 1 73.7306 -0.401614 2.10143
343 1 74.6485 -0.205199 2.29865
344 1 75.4431 0.171232 1.89494
345 1 76.041 0.126929 1.20943
346 1 76.7845 -0.0349153 1.79136
347 1 77.3733 -0.337744 1.04661
348 1 78.3016 -0.717828 1.08467
349 1 79.0437 -1.25305 1.34587
350 1 79.9642 -1.02692 1.2678
351 1 80.8501 -1.11863 1.59066
352 1 81.7877 -0.936586 1.52753
353 1 82.6514 -1.09978 1.30092
354 1 83.5214 -0.819291 1.30166
355 1 84.4806 -0.737407 1.38809
356 1 85.3554 -0.704693 1.84241
357 1 86.268 -0.398566 1.78768
358 1 87.108 -0.450819 2.19726
359 1 88.0001 -0.358537 2.32867
360 1 88.4266 -0.674617 3.08013
361 1 89.318 -0.975215 3.03182
362 1 90.2202 -1.30549 3.11229
363 1 91.1053 -0.963086 2.98862
364 1 91.5807 -0.16546 2.94839
365 1 92.4668 -0.105591 2.69971
366 1 93.2278 0.360161 2.50731
367 1 94.1968 0.393731 2.59195
368 1 95.1763 0.409003 2.40296
369 1 95.8403 1.03289 2.45684
370 1 96.7399 1.32909 2.61763
371 1 97.5788 0.902567 2.47854
372 1 98.4443 0.656427 2.12038
373 1 99.3417 1.06663 2.21834
374 1 100.277 1.11461 2.05347
375 1 101.173 1.0714 2.17767
376 1 102.049 0.637881 2.22948
377 1 102.986 0.574226 2.05352
378 1 103.766 0.313861 1.47001
379 1 104.549 -0.0928145 1.10523
380 1 105.336 0.206893 0.696508
381 1 106.262 0.127103 0.635458
382 1 107.011 0.352597 1.18955
383 1 107.838 0.208326 0.730276
384 1 108.756 0.179093 0.368844
385 1 109.475 0.159336 0.969055
386 1 110.281 0.574777 0.756167
387 1 110.895 -0.0954541 0.520096
388 1 111.706 0.316043 0.905215
389 1 112.473 0.828079 0.882958
390 1 113.366 0.585228 0.796215
391 1 114.274 0.696371 1.0989
392 1 115.006 1.15858 0.735822
393 1 115.869 0.712153 0.447794
394 1 116.736 0.658555 0.716146
395 1 117.649 0.763718 0.824785
396 1 118.476 0.373238 0.706927
397 1 119.371 0.126921 0.711899
398 1 120.217 -0.262221 0.394849
399 1 120.558 0.365245 -0.210815
400 1 121.323 0.974082 -0.227357
401 1 122.162 0.845714 -0.724647
402 1 123.067 0.802563 -0.923094
403 1 123.845 1.01231 -0.490452
404 1 124.741 1.02434 -0.790631
405 1 125.523 0.700734 -1.23689
406 1 125.973 -0.133037 -1.01477
407 1 126.79 0.38248 -0.867261
408 1 127.701 0.182603 -1.00883
409 1 128.597 0.174948 -1.27221
410 1 129.378 -0.350613 -1.37508
411 1 130.228 -0.367584 -1.81939
412 1 130.671 -0.588253 -2.61871
413 1 131.456 -0.6531 -3.08678
414 1 132.301 -1.07498 -3.04805
415 1 132.877 -0.949117 -3.79399
416 1 133.651 -0.604515 -3.40576
417 1 134.618 -0.655816 -3.24222
418 1 135.496 -1.13956 -2.97383
419 1 136.332 -0.693705 -3.14129
420 1 137.241 -0.908292 -3.11914
421 1 138.112 -0.945005 -3.55229
422 1 138.815 -1.07991 -4.1681
423 1 139.672 -0.814504 -4.28873
424 1 140.32 -1.06395 -4.93833
425 1 140.899 -0.739693 -4.30461