ITEM: TIMESTEP
1060000
ITEM: NUMBER OF ATOMS
512
ITEM: BOX BOUNDS mm mm mm
-2.5600000000000000e+02 2.5600000000000000e+02
-2.5600000000000000e+02 2.5600000000000000e+02
-2.5600000000000000e+02 2.5600000000000000e+02
ITEM: ATOMS id type x y z
1 1 -83.5151 12.869 19.6097
2 1 -83.6111 12.9291 20.497
3 1 -84.2822 13.3456 21.0541
4 1 -84.4759 13.5982 21.9366
5 1 -85.0993 14.1986 21.6186
6 1 -85.7696 13.5658 21.5232
7 1 -85.987 12.6107 21.46
8 1 -86.7543 12.539 20.8632
9 1 -87.1276 12.331 19.9894
10 1 -87.4661 11.7347 19.2819
11 1 -87.9878 11.695 18.564
12 1 -87.3052 11.4868 17.961
13 1 -86.7756 11.4073 17.2054
14 1 -86.3062 10.9108 16.4553
15 1 -85.9684 11.3358 15.7072
16 1 -86.3002 11.0792 14.8848
17 1 -86.3026 11.2047 13.9025
18 1 -86.3413 10.6581 13.1584
19 1 -85.8779 9.89429 12.9167
20 1 -85.4728 9.13338 12.6351
21 1 -84.9246 8.35698 12.6465
22 1 -84.614 7.98553 13.4331
23 1 -84.3547 8.41389 14.1914
24 1 -83.966 8.54827 14.9959
25 1 -83.3924 7.81387 14.9492
26 1 -82.9467 7.70149 15.7202
27 1 -82.4182 6.85937 15.8943
28 1 -81.4407 6.88411 15.9477
29 1 -80.6347 7.275 15.618
30 1 -80.4162 7.78556 14.9037
31 1 -80.2722 8.41731 14.239
32 1 -80.3015 9.17839 13.6579
33 1 -79.5977 9.72092 13.353
34 1 -79.1003 9.55696 12.5572
35 1 -78.3236 9.97612 12.2797
36 1 -77.6385 10.6208 12.4983
37 1 -76.7525 10.5515 12.8434
38 1 -76.7863 9.70713 13.1637
39 1 -77.0367 9.41403 12.27
40 1 -76.7261 9.44311 11.3954
41 1 -75.9801 9.12528 11.8059
42 1 -75.453 8.39044 11.5747
43 1 -74.5785 8.01783 11.5114
44 1 -73.76 7.58756 11.3835
45 1 -72.9339 7.06823 11.1938
46 1 -72.3352 6.49535 10.8249
47 1 -71.6481 6.74131 11.4288
48 1 -70.7862 7.0531 11.1015
49 1 -70.6279 6.93351 12.0618
50 1 -70.6478 6.00222 12.005
51 1 -70.352 5.27519 11.4783
52 1 -69.7832 4.56696 11.3306
53 1 -69.6445 4.71917 10.4161
54 1 -69.7478 4.53192 9.51045
55 1 -70.25 3.83123 9.90701
56 1 -70.6639 3.08415 9.60728
57 1 -70.7597 2.51909 10.346
58 1 -71.0957 2.44454 11.2018
59 1 -70.6604 1.68529 11.599
60 1 -70.2944 1.62678 10.7233
61 1 -69.4342 1.35751 10.9843
62 1 -68.5715 0.96876 10.9892
63 1 -67.9186 0.366632 10.8484
64 1 -67.3835 -0.299909 10.3777
65 1 -67.0006 -1.11642 10.2656
66 1 -66.4987 -1.88053 10.1809
67 1 -66.57 -2.35252 9.30138
68 1 -66.5594 -3.28887 9.18373
69 1 -66.0892 -3.81912 8.60946
70 1 -65.6598 -4.46472 9.10153
71 1 -64.9043 -4.33178 9.67299
72 1 -64.198 -4.27314 10.2759
73 1 -63.7101 -3.4603 10.3
74 1 -63.1866 -3.30063 9.5437
75 1 -62.2608 -3.25284 9.19745
76 1 -61.6801 -4.05401 9.06046
77 1 -61.9482 -4.9078 9.46139
78 1 -61.34 -5.18292 8.79535
79 1 -60.4422 -5.38962 9.04675
80 1 -60.2527 -4.85334 9.78867
81 1 -60.5706 -4.74634 10.6755
82 1 -60.0419 -4.00217 10.9342
83 1 -59.2971 -3.59003 11.3097
84 1 -58.4742 -3.15915 11.0194
85 1 -57.7515 -3.24579 10.3892
86 1 -57.3166 -3.62604 9.70379
87 1 -57.121 -4.3558 9.12949
88 1 -56.398 -4.87742 8.97522
89 1 -55.733 -5.54201 8.8388
90 1 -55.4004 -6.38435 8.58519
91 1 -55.4797 -6.89405 7.77716
92 1 -55.6665 -7.30323 6.88236
93 1 -55.4429 -8.03536 6.36215
94 1 -55.5067 -8.93399 6.70225
95 1 -55.7502 -9.78523 7.00038
96 1 -56.4253 -10.4803 6.7829
97 1 -57.1782 -10.6728 6.3289
98 1 -57.7654 -10.7138 5.59301
99 1 -57.6551 -9.81793 5.31567
100 1 -56.7433 -9.6934 5.16736
101 1 -56.2152 -9.61245 4.34838
102 1 -55.4819 -9.47478 3.74528
103 1 -55.4823 -10.0889 2.99116
104 1 -55.9996 -10.6118 2.39627
105 1 -56.4553 -10.3929 1.5228
106 1 -56.9341 -9.6516 1.82591
107 1 -57.1092 -9.70985 0.918145
108 1 -56.5148 -8.99669 0.796749
109 1 -56.1573 -8.26373 1.22727
110 1 -55.7896 -7.56482 1.79034
111 1 -55.4659 -7.44181 2.62184
112 1 -55.3603 -6.70228 3.21127
113 1 -55.5028 -5.81962 3.6081
114 1 -55.4601 -4.86435 3.68576
115 1 -55.595 -3.92182 3.4485
116 1 -54.9949 -3.48112 2.94219
117 1 -54.9715 -2.74411 3.42681
118 1 -54.597 -2.45259 4.24272
119 1 -53.9081 -2.4339 3.60982
120 1 -53.0994 -2.50641 4.07635
121 1 -52.2242 -2.6992 4.40438
122 1 -51.3774 -2.7357 4.78841
123 1 -50.9501 -3.54713 5.09719
124 1 -51.4813 -3.57806 5.91511
125 1 -50.9153 -3.74055 6.6573
126 1 -50.3806 -4.18418 7.30898
127 1 -49.6652 -4.69332 7.56663
128 1 -48.7885 -5.01561 7.41759
129 1 -47.9463 -5.29125 7.56681
130 1 -47.137 -5.72986 7.65681
131 1 -46.2763 -5.93241 7.81709
132 1 -45.5457 -5.82151 7.18981
133 1 -45.5784 -4.85405 7.01932
134 1 -44.8454 -4.34211 6.80628
135 1 -44.6831 -3.49542 6.41
136 1 -43.8052 -3.21552 6.13819
137 1 -43.1862 -2.8851 5.5243
138 1 -42.9128 -2.18426 4.97146
139 1 -42.6932 -1.3831 4.55183
140 1 -42.7193 -0.421422 4.61564
141 1 -42.4243 0.470263 4.80204
142 1 -42.7887 1.32607 4.55642
143 1 -42.2185 2.05445 4.78682
144 1 -41.5468 1.56595 5.12408
145 1 -41.039 1.29295 4.398
146 1 -40.3 1.77348 3.93833
147 1 -39.4234 2.01087 3.76016
148 1 -38.7639 2.56077 3.22683
149 1 -38.0435 3.18729 3.04014
150 1 -37.3502 3.41344 2.41667
151 1 -36.7331 4.0432 2.15211
152 1 -36.6108 4.12401 1.25891
153 1 -36.7841 4.44927 0.37018
154 1 -36.7795 5.36188 0.0682467
155 1 -36.5649 6.18638 -0.38765
156 1 -36.8999 7.02888 -0.605318
157 1 -37.7264 7.40153 -0.85832
158 1 -38.0433 8.11688 -1.35904
159 1 -38.6557 8.26198 -2.09121
160 1 -39.0584 8.16229 -2.92343
161 1 -39.2775 7.63083 -3.6579
162 1 -39.7126 7.18912 -4.36073
163 1 -40.3015 6.48213 -4.15971
164 1 -41.1026 6.74242 -3.77269
165 1 -40.7839 7.61169 -4.01522
166 1 -40.9449 8.52575 -4.19949
167 1 -41.384 9.26243 -4.51234
168 1 -41.1157 10.0778 -4.8449
169 1 -40.9349 10.8997 -4.45735
170 1 -41.2071 11.8344 -4.41028
171 1 -41.1008 12.1738 -3.51231
172 1 -40.6686 12.7029 -2.81631
173 1 -40.3674 13.53 -3.11192
174 1 -39.9792 13.9568 -2.35365
175 1 -39.0952 14.0944 -1.94887
176 1 -38.2322 14.3213 -2.20664
177 1 -37.4588 13.8336 -2.55288
178 1 -36.8905 13.3697 -1.98231
179 1 -36.1189 12.8974 -1.91151
180 1 -35.4183 12.7371 -2.4701
181 1 -34.7889 12.0674 -2.61719
182 1 -34.8205 11.2758 -3.11497
183 1 -34.8649 10.394 -3.30747
184 1 -34.4843 9.54539 -3.23886
185 1 -34.1623 9.37707 -2.3426
186 1 -33.8184 8.93252 -1.48229
187 1 -32.892 8.70628 -1.24576
188 1 -32.613 9.57277 -1.3883
189 1 -33.1686 10.2839 -1.68977
190 1 -33.5159 11.0574 -2.16448
191 1 -32.6723 11.1224 -2.53451
192 1 -31.8372 11.2174 -2.06456
193 1 -30.8618 11.1562 -2.20286
194 1 -30.485 11.5907 -1.37325
195 1 -29.9206 11.9954 -0.727292
196 1 -29.7812 12.3335 0.198784
197 1 -29.2979 12.7879 0.885734
198 1 -29.2865 13.1998 1.71487
199 1 -29.0101 14.0462 2.01012
200 1 -29.0057 14.9729 1.77156
201 1 -29.8451 14.68 2.11178
202 1 -29.9472 14.7365 3.04814
203 1 -29.6631 14.3644 3.89837
204 1 -29.0824 13.6548 3.70004
205 1 -28.5437 13.5827 2.9417
206 1 -27.6779 13.2456 3.18827
207 1 -26.786 12.9185 3.31025
208 1 -25.8292 13.0403 3.01378
209 1 -24.8853 13.2254 3.10268
210 1 -24.1347 12.6301 3.1867
211 1 -23.7493 11.7765 3.11013
212 1 -23.6301 11.3768 4.02794
213 1 -24.0682 11.3303 4.88607
214 1 -23.4439 11.0591 5.50317
215 1 -22.7187 11.6843 5.55891
216 1 -21.9092 12.0395 5.50668
217 1 -20.98 11.7917 5.75345
218 1 -20.1901 12.0195 5.32509
219 1 -19.7223 12.8861 5.24222
220 1 -19.2577 12.8546 4.44225
221 1 -19.6506 12.5959 3.63978
222 1 -19.4274 11.6747 3.5457
223 1 -18.9376 10.8465 3.33495
224 1 -19.1333 10.0433 2.8221
225 1 -19.0356 9.28472 3.42491
226 1 -18.4094 9.78 3.95499
227 1 -17.51 10.1241 3.99294
228 1 -16.6061 10.3919 4.01505
229 1 -15.8539 10.8993 3.93656
230 1 -15.0379 11.279 3.67769
231 1 -14.7708 12.1479 3.82231
232 1 -13.8201 12.1509 3.8076
233 1 -13.029 12.596 4.01322
234 1 -12.0689 12.4757 3.94505
235 1 -11.4693 13.0226 3.45947
236 1 -10.5692 13.2243 3.51586
237 1 -9.624 13.4211 3.56911
238 1 -8.91347 13.7082 3.00777
239 1 -8.12686 13.0834 3.13637
240 1 -8.22149 12.5651 2.35118
241 1 -8.22839 12.0068 1.55982
242 1 -8.43853 11.1304 1.37654
243 1 -8.10569 10.24 1.54319
244 1 -7.98036 9.33768 1.52371
245 1 -8.0991 8.6349 2.17701
246 1 -7.37618 8.0127 2.24117
247 1 -6.59973 8.48517 2.25152
248 1 -5.7851 8.06108 2.0963
249 1 -4.99443 7.61635 2.24896
250 1 -4.44897 7.39511 1.51337
251 1 -3.69573 7.45555 0.994078
252 1 -3.11544 7.94899 0.421061
253 1 -2.23388 8.00237 0.792742
254 1 -1.41607 8.26935 1.22614
255 1 -0.949444 8.21671 0.419091
256 1 -0.467089 8.76453 -0.203742
257 1 0.184993 9.46791 -0.266745
258 1 1.02732 9.69822 0.0129866
259 1 0.8708 9.93227 0.914469
260 1 0.852777 10.3308 1.78137
261 1 1.24986 10.738 2.54388
262 1 2.16103 10.6028 2.79384
263 1 3.06228 10.4204 2.41156
264 1 3.55966 10.5021 3.1739
265 1 4.35296 11.0885 2.93873
266 1 5.05392 10.7239 2.44494
267 1 5.67365 10.7687 1.68149
268 1 6.60953 10.6038 1.70534
269 1 7.40276 10.8284 2.24707
270 1 8.30668 11.1246 2.31272
271 1 9.18369 11.2139 2.16165
272 1 9.92042 11.2653 1.52561
273 1 10.4853 10.6419 1.11463
274 1 9.7758 10.2108 0.673665
275 1 9.51451 11.1291 0.544057
276 1 10.1147 11.8457 0.562533
277 1 11.0472 11.952 0.508951
278 1 11.7747 12.4457 0.12431
279 1 12.3264 12.2036 -0.560811
280 1 12.9582 11.5388 -0.695662
281 1 13.8349 11.5921 -0.471709
282 1 14.5491 11.1057 -0.182468
283 1 15.3168 10.5565 -0.488259
284 1 14.7414 9.99943 -1.00798
285 1 15.2032 9.19736 -1.15704
286 1 15.9917 9.48589 -1.61995
287 1 16.8157 9.62284 -2.07021
288 1 17.483 9.661 -1.34972
289 1 18.089 8.95731 -1.30313
290 1 18.9127 8.47718 -1.10579
291 1 19.7002 8.14957 -0.749035
292 1 20.2251 8.48193 -0.0391464
293 1 20.9201 8.80518 0.49874
294 1 21.3918 8.82996 1.29282
295 1 22.0768 8.93586 1.93293
296 1 22.7731 9.24704 2.46913
297 1 22.4355 9.62396 3.23823
298 1 22.0022 9.06406 3.82378
299 1 21.6211 8.21108 3.97203
300 1 22.4014 8.11665 3.50327
301 1 22.7461 7.92944 2.64824
302 1 23.5794 7.77026 2.29575
303 1 24.4861 8.01635 2.42634
304 1 24.9712 8.78292 2.17397
305 1 25.9101 8.65172 2.14395
306 1 26.7764 8.92554 1.89408
307 1 27.6002 8.62427 1.5115
308 1 28.5111 8.76401 1.71226
309 1 29.4666 8.91468 1.77723
310 1 30.1206 9.55038 1.91578
311 1 30.6798 8.86243 2.2529
312 1 31.0425 8.50657 3.10115
313 1 31.2247 7.78084 3.60089
314 1 32.1244 7.55703 3.44434
315 1 32.6192 7.38503 2.67866
316 1 33.3557 7.91944 2.6073
317 1 33.5845 7.95121 1.68308
318 1 33.6274 8.43108 0.851319
319 1 33.4041 8.93857 0.152432
320 1 33.2909 9.78399 -0.256727
321 1 33.3081 9.89593 -1.19578
322 1 33.4458 10.8302 -1.41069
323 1 33.0879 11.6868 -1.34965
324 1 32.8476 12.5104 -1.65782
325 1 32.7839 13.2297 -2.18485
326 1 33.3263 13.9653 -2.57429
327 1 33.4572 14.4547 -3.3479
328 1 33.5524 15.3192 -3.62284
329 1 34.3045 15.8516 -3.52207
330 1 34.557 16.491 -2.94605
331 1 35.3004 16.9034 -3.35129
332 1 35.9227 17.54 -3.04541
333 1 36.5194 18.2337 -2.67062
334 1 36.8367 19.0032 -3.04206
335 1 37.3761 18.9687 -3.84438
336 1 37.9027 18.4547 -4.51589
337 1 37.5328 17.777 -5.04436
338 1 37.6373 18.494 -5.64062
339 1 37.8217 19.2997 -6.0064
340 1 37.9946 20.0212 -5.39464
341 1 37.9768 20.606 -4.65358
342 1 38.3574 20.6399 -3.79485
343 1 39.1367 20.1944 -3.62462
344 1 39.8375 19.5678 -3.40124
345 1 40.2938 18.7292 -3.37068
346 1 40.7883 18.5938 -4.14851
347 1 41.1809 19.4462 -4.28438
348 1 42.0501 19.8046 -4.08233
349 1 42.6529 20.4833 -3.81716
350 1 42.7365 20.473 -2.85969
351 1 43.102 21.3535 -2.76858
352 1 43.8076 20.9811 -2.2299
353 1 44.6068 20.476 -2.35307
354 1 45.0795 20.3122 -3.11285
355 1 45.1677 21.1974 -3.4176
356 1 45.8851 21.603 -3.83159
357 1 46.0888 21.6976 -4.74087
358 1 45.6488 20.8816 -4.96188
359 1 45.8594 19.9144 -4.93943
360 1 45.6351 19.1118 -5.4335
361 1 45.8126 18.2232 -5.33954
362 1 46.1492 17.3924 -5.11894
363 1 46.6303 16.5814 -5.19561
364 1 47.4938 16.2552 -5.10556
365 1 47.8985 16.4109 -5.96987
366 1 48.4239 16.63 -6.76111
367 1 49.2763 16.6888 -7.15398
368 1 49.4289 17.5981 -7.32087
369 1 49.9328 18.4021 -7.31402
370 1 50.7317 18.8771 -7.12212
371 1 51.5101 19.3903 -7.31481
372 1 52.3967 19.5828 -7.5857
373 1 52.0441 19.7782 -8.44789
374 1 51.2349 19.534 -8.8537
375 1 51.2582 18.6427 -9.18185
376 1 51.9268 18.0045 -9.03565
377 1 52.7362 18.2074 -9.41552
378 1 53.5592 18.4547 -9.32859
379 1 54.553 18.572 -9.3146
380 1 55.4731 18.4089 -9.42229
381 1 56.2733 18.8389 -9.39197
382 1 56.9449 19.227 -10.07
383 1 57.6377 18.6491 -10.3566
384 1 58.3692 18.4188 -10.8339
385 1 58.1471 19.1318 -11.4593
386 1 58.3727 19.5478 -12.2502
387 1 58.5041 18.6934 -12.7463
388 1 59.2257 18.0811 -12.5519
389 1 59.5761 17.1317 -12.3346
390 1 60.2098 16.3995 -12.3265
391 1 60.4898 15.5308 -12.0722
392 1 60.9564 14.9066 -11.546
393 1 60.1326 15.0793 -11.192
394 1 59.6816 15.3743 -10.4535
395 1 59.5369 16.0333 -9.7685
396 1 59.9391 16.6473 -9.27799
397 1 59.7203 16.9115 -8.3973
398 1 60.4311 16.4377 -7.94977
399 1 59.7084 15.8977 -8.11708
400 1 58.9758 16.0958 -7.5723
401 1 58.7113 16.2445 -6.71081
402 1 58.6001 16.1244 -5.77977
403 1 59.1484 15.4621 -5.31552
404 1 59.8865 15.037 -4.86954
405 1 59.5509 14.2877 -5.36328
406 1 59.4876 13.4051 -5.77862
407 1 59.4665 12.5949 -5.20997
408 1 59.6259 12.7284 -4.32861
409 1 59.7061 12.4936 -3.39211
410 1 60.5307 12.6691 -3.71442
411 1 61.1383 13.193 -4.25533
412 1 61.6849 13.5226 -4.92906
413 1 62.1598 14.278 -4.65946
414 1 62.2449 15.1013 -4.14667
415 1 62.3822 15.5667 -4.99588
416 1 61.9232 15.6455 -5.83637
417 1 62.225 15.4356 -6.7522
418 1 62.1896 15.1559 -7.65934
419 1 61.6757 14.4474 -7.93429
420 1 61.3381 13.7167 -8.35321
421 1 61.4756 12.7393 -8.6828
422 1 62.235 12.2705 -9.1107
423 1 62.4111 11.884 -9.95156
424 1 62.6289 11.7387 -10.8397
425 1 62.2795 11.8762 -11.7161
426 1 61.6668 12.1568 -12.4222
427 1 60.9525 12.6012 -12.841
428 1 60.3198 12.3038 -13.473
429 1 59.5838 12.0762 -14.1357
430 1 59.1235 12.722 -14.581
431 1 59.6129 13.3972 -15.0642
432 1 60.2636 14.0422 -15.2738
433 1 60.8011 14.6668 -15.6924
434 1 61.2547 15.3794 -15.9795
435 1 62.0367 15.8431 -15.825
436 1 62.6848 15.2331 -16.0848
437 1 63.1553 15.1359 -15.2861
438 1 63.4616 15.0232 -14.4192
439 1 63.79 15.151 -13.6068
440 1 64.2119 14.5725 -13.1098
441 1 65.0982 14.5662 -13.5232
442 1 65.7868 14.8063 -14.179
443 1 66.4238 14.9806 -14.8778
444 1 66.1992 15.0117 -15.7683
445 1 65.6935 15.0689 -16.5465
446 1 65.7423 14.7583 -17.4196
447 1 65.7879 13.7842 -17.5543
448 1 65.5043 13.2069 -16.8962
449 1 65.0186 12.4283 -16.6508
450 1 65.7592 11.8921 -16.5095
451 1 65.8113 10.9856 -16.4583
452 1 64.9569 10.4754 -16.4208
453 1 65.1106 9.86474 -15.7426
454 1 64.3433 9.47989 -15.2165
455 1 63.8875 9.02837 -14.5685
456 1 63.3331 8.7474 -13.8455
457 1 63.2794 8.65096 -12.903
458 1 64.0466 8.1672 -12.6669
459 1 64.3629 8.15412 -11.8128
460 1 65.0931 8.59237 -11.4077
461 1 65.6277 9.40178 -11.5919
462 1 65.7068 10.3062 -11.8186
463 1 65.9346 10.1401 -12.6713
464 1 66.1398 9.94593 -13.5498
465 1 66.9798 9.52196 -13.6823
466 1 67.7866 10.0005 -13.6708
467 1 68.1425 10.7124 -13.1525
468 1 68.7303 10.8345 -12.4035
469 1 67.8884 10.8077 -11.9989
470 1 67.4773 11.4094 -11.5122
471 1 67.7244 12.1761 -11.0282
472 1 68.1665 11.4433 -10.6751
473 1 67.8027 10.6116 -10.3826
474 1 67.5791 9.72814 -10.1169
475 1 67.8846 9.06594 -9.50569
476 1 68.1274 8.17426 -9.35088
477 1 69.0051 7.88162 -9.56538
478 1 69.4983 7.10173 -9.45044
479 1 70.156 6.96227 -10.1498
480 1 70.34 6.83634 -11.0659
481 1 69.99 6.01684 -11.3323
482 1 70.1343 5.09433 -11.4899
483 1 70.7053 4.41784 -11.9448
484 1 70.8343 4.61573 -12.883
485 1 71.441 3.9303 -12.951
486 1 71.7968 3.6758 -12.112
487 1 72.196 2.92103 -11.6894
488 1 72.3044 2.84938 -10.7764
489 1 73.0959 2.58186 -10.3234
490 1 73.5916 2.59771 -9.50717
491 1 74.4164 2.74922 -9.13456
492 1 75.225 2.52098 -9.5647
493 1 75.0703 1.85204 -8.9552
494 1 75.7146 1.56351 -8.30548
495 1 76.3702 1.29072 -7.65834
496 1 76.9818 1.9461 -7.93169
497 1 76.8333 2.79437 -7.53944
498 1 77.6559 3.16582 -7.76602
499 1 78.1939 3.66586 -8.43524
500 1 78.7669 4.21458 -8.89352
501 1 79.1473 5.14592 -8.97311
502 1 80.079 4.89741 -8.68389
503 1 80.6592 4.46741 -8.0256
504 1 81.5445 4.78671 -8.12476
505 1 82.351 4.46872 -7.74369
506 1 83.1402 3.93374 -7.58563
507 1 83.8453 3.90351 -8.14325
508 1 84.3057 3.22801 -8.56679
509 1 84.5963 2.85282 -9.39312
510 1 85.1067 2.05965 -9.30009
511 1 85.0899 1.75754 -8.3967
512 1 85.3954 1.02682 -7.9263
ITEM: TIMESTEP
1070000
ITEM: NUMBER OF ATOMS
512
ITEM: BOX BOUNDS mm mm mm
-2.5600000000000000e+02 2.5600000000000000e+02
-2.5600000000000000e+02 2.5600000000000000e+02
-2.5600000000000000e+02 2.5600000000000000e+02
ITEM: ATOMS id type x y z
1 1 -86.7342 7.47355 25.2063
2 1 -86.0273 6.88433 25.4139
3 1 -85.9623 6.70806 24.4901
4 1 -85.6508 6.4442 23.6976
5 1 -85.2558 5.68308 23.301
6 1 -84.8911 5.06414 22.7216
7 1 -84.0314 5.49895 22.5231
8 1 -83.5521 6.09679 23.0739
9 1 -83.89 6.86466 23.5828
10 1 -83.7148 7.78323 23.656
11 1 -83.5551 8.51438 24.1838
12 1 -83.3298 9.04234 24.9223
13 1 -83.3095 9.98891 24.7602
14 1 -82.6613 10.4469 24.2658
15 1 -81.8286 10.9147 24.3097
16 1 -80.8805 11.1081 24.1636
17 1 -80.7721 11.8636 23.5567
18 1 -81.6849 11.6537 23.6645
19 1 -82.3569 11.5737 22.9715
20 1 -82.7318 10.7658 22.7486
21 1 -82.8512 9.84165 22.7305
22 1 -82.4701 9.07015 22.4679
23 1 -83.2295 8.61808 22.2288
24 1 -83.1769 7.66707 22.3802
25 1 -83.1169 7.74221 21.4105
26 1 -82.2422 7.48687 21.0343
27 1 -82.6687 6.7742 20.556
28 1 -82.8236 6.11479 19.9332
29 1 -82.6308 6.24772 19.0449
30 1 -82.3464 5.97757 18.2177
31 1 -82.0215 5.24162 17.6899
32 1 -81.731 4.30256 17.6541
33 1 -81.1184 3.54284 17.697
34 1 -81.1536 3.36279 16.7249
35 1 -81.3557 4.12827 16.2202
36 1 -80.4406 4.27734 15.9159
37 1 -79.677 4.61873 15.4292
38 1 -78.8041 4.90943 15.1104
39 1 -77.8397 4.94586 14.8657
40 1 -77.19 4.31897 14.764
41 1 -76.3203 4.19065 15.0218
42 1 -75.7941 4.7986 15.4692
43 1 -74.9058 4.92187 15.7019
44 1 -73.9947 4.84331 15.5393
45 1 -73.1978 5.29887 15.5804
46 1 -73.2881 5.71844 14.7646
47 1 -73.5448 5.34639 13.9759
48 1 -73.3673 4.49383 13.7013
49 1 -73.3327 3.96485 12.9781
50 1 -73.6814 4.02584 12.0869
51 1 -72.7727 3.68148 12.085
52 1 -72.304 2.84296 12.0227
53 1 -71.5411 2.35849 12.018
54 1 -70.7 2.05075 11.9385
55 1 -70.3643 1.88056 11.0621
56 1 -71.1196 2.20326 10.5587
57 1 -71.3166 2.07003 9.62086
58 1 -70.7404 2.10969 8.85608
59 1 -70.2584 2.54382 8.18083
60 1 -69.7414 3.33546 8.15781
61 1 -69.021 3.51474 8.69982
62 1 -68.2868 3.65767 8.06773
63 1 -67.4608 3.53752 7.58734
64 1 -66.8291 3.30179 6.88711
65 1 -66.0485 3.20768 6.36253
66 1 -65.4072 3.35938 7.00273
67 1 -64.6293 3.57345 6.54327
68 1 -63.7209 3.8091 6.31609
69 1 -63.2196 3.03883 5.99312
70 1 -62.7953 2.19229 6.03561
71 1 -61.9447 2.009 6.43854
72 1 -61.3988 1.37855 6.87734
73 1 -60.9056 0.876866 7.56866
74 1 -60.4743 0.468119 8.26596
75 1 -60.3957 0.624245 9.1883
76 1 -59.5414 0.393243 9.49553
77 1 -59.8841 -0.209043 10.176
78 1 -59.3706 -0.964606 10.0779
79 1 -59.5382 -1.90166 10.0117
80 1 -60.006 -2.50231 9.41224
81 1 -60.4376 -3.27466 9.02021
82 1 -60.1095 -4.16575 8.96762
83 1 -60.0927 -4.19049 8.04508
84 1 -60.9376 -4.51933 7.67237
85 1 -61.1663 -4.22188 6.83937
86 1 -60.619 -4.35943 6.12854
87 1 -59.964 -4.15962 5.51114
88 1 -59.0735 -4.11642 5.23881
89 1 -58.4244 -4.52949 4.70885
90 1 -58.3506 -4.40776 3.7513
91 1 -59.1187 -4.78932 3.39166
92 1 -59.4147 -5.33522 2.64935
93 1 -59.1429 -5.0724 1.78334
94 1 -58.2325 -5.47551 1.95844
95 1 -57.3022 -5.52635 2.2092
96 1 -56.5725 -5.47654 2.79299
97 1 -56.7248 -6.28934 3.21304
98 1 -57.1477 -7.13383 3.03741
99 1 -57.0151 -8.07892 2.98424
100 1 -57.3421 -8.33914 3.82351
101 1 -57.319 -9.24306 3.5483
102 1 -56.4638 -9.29711 3.34138
103 1 -56.4463 -9.26492 4.35984
104 1 -55.9844 -8.61549 4.89623
105 1 -55.1727 -8.67375 5.42784
106 1 -54.8609 -9.34649 6.02149
107 1 -54.4056 -9.86461 5.44094
108 1 -53.6656 -10.0355 4.89878
109 1 -52.7183 -10.1459 4.88891
110 1 -52.6539 -9.27025 4.57989
111 1 -52.8207 -8.35575 4.64484
112 1 -52.7624 -7.42618 4.68091
113 1 -52.5746 -6.50831 4.80519
114 1 -51.7334 -6.11612 4.55602
115 1 -50.92 -6.53544 4.62596
116 1 -50.0952 -6.33387 5.09086
117 1 -50.2868 -5.42323 5.01877
118 1 -51.0341 -4.87152 4.68201
119 1 -50.8264 -4.28268 3.98775
120 1 -50.8822 -4.02657 3.10567
121 1 -50.3556 -3.80218 2.35491
122 1 -49.9932 -3.85439 1.51358
123 1 -49.2766 -3.87042 0.897331
124 1 -48.7015 -3.13847 0.860281
125 1 -48.5788 -2.19661 1.04145
126 1 -48.5479 -1.6928 1.85482
127 1 -48.9127 -1.03943 2.4502
128 1 -48.5284 -0.865754 3.24474
129 1 -47.5782 -0.794985 3.29573
130 1 -46.7394 -0.864363 2.92812
131 1 -45.9951 -0.548558 2.40575
132 1 -45.3371 -0.489284 3.01688
133 1 -44.9503 -0.763008 3.84989
134 1 -44.6509 -0.312108 4.61945
135 1 -44.8785 -0.0431685 5.5189
136 1 -44.1344 0.510638 5.49173
137 1 -43.6187 1.29321 5.23973
138 1 -42.6693 1.57469 5.22617
139 1 -41.8217 1.88328 5.43058
140 1 -41.8681 2.50997 4.7643
141 1 -42.7239 2.59161 4.35438
142 1 -43.0181 3.48776 4.05111
143 1 -42.6522 4.34091 3.77683
144 1 -42.288 4.85915 3.09195
145 1 -41.8968 5.20346 2.28912
146 1 -41.697 5.02215 1.40119
147 1 -40.9519 5.57532 1.30574
148 1 -40.1425 5.96396 0.998608
149 1 -39.2781 6.35665 0.898684
150 1 -38.4964 6.08375 0.49934
151 1 -38.5299 5.72892 -0.424698
152 1 -37.9256 5.78089 -1.18809
153 1 -37.3012 6.49312 -1.12859
154 1 -36.4203 6.83686 -0.974838
155 1 -35.7247 6.48035 -0.524358
156 1 -36.0934 6.42008 0.362354
157 1 -36.6663 6.51608 1.09113
158 1 -37.394 7.15427 1.20119
159 1 -37.3299 7.9192 1.68819
160 1 -36.8486 8.72216 1.66137
161 1 -37.1951 9.48776 1.18002
162 1 -37.9864 9.4263 0.643528
163 1 -38.5505 9.55872 -0.11099
164 1 -38.8389 8.77978 -0.451358
165 1 -38.9942 7.97675 -0.868348
166 1 -39.2759 7.09663 -1.02306
167 1 -39.5818 6.20662 -0.834872
168 1 -40.3966 5.8489 -0.578776
169 1 -41.1666 5.40012 -0.30357
170 1 -41.2419 6.39011 -0.17733
171 1 -41.2032 7.21688 0.234023
172 1 -41.5872 7.8704 0.814242
173 1 -41.9556 8.79432 0.924106
174 1 -41.5264 9.63642 0.909187
175 1 -41.7295 9.52425 -0.0261361
176 1 -41.6265 8.91308 -0.728512
177 1 -41.3123 8.0493 -0.523401
178 1 -42.0576 7.40213 -0.629119
179 1 -42.2606 7.59035 -1.52953
180 1 -42.2034 7.49261 -2.49791
181 1 -42.2645 8.42416 -2.5864
182 1 -41.6264 9.15514 -2.44653
183 1 -41.3591 10.106 -2.59947
184 1 -40.6564 10.7401 -2.53463
185 1 -40.4173 11.6002 -2.24151
186 1 -39.9902 12.4586 -2.23305
187 1 -39.2911 12.6508 -1.61276
188 1 -38.6321 13.2791 -1.35711
189 1 -38.2207 14.1146 -1.49362
190 1 -37.3415 14.2785 -1.77934
191 1 -36.405 14.2112 -1.93114
192 1 -35.6158 13.6648 -1.97042
193 1 -34.638 13.5963 -1.86465
194 1 -33.8599 13.2679 -1.43069
195 1 -33.7953 12.5466 -2.0277
196 1 -34.2912 12.6588 -2.88179
197 1 -33.7431 13.437 -2.96166
198 1 -32.937 13.8678 -2.76422
199 1 -31.9834 13.842 -2.55392
200 1 -31.127 14.1325 -2.3628
201 1 -30.7659 14.7766 -1.76877
202 1 -30.4702 14.19 -1.06998
203 1 -29.5917 14.3735 -0.681196
204 1 -28.8052 14.3914 -0.152765
205 1 -27.8643 14.4977 -0.0343274
206 1 -27.2014 15.0966 0.310799
207 1 -26.4117 14.7673 0.769838
208 1 -25.8365 14.9972 1.52355
209 1 -25.5173 14.9815 2.42949
210 1 -24.8955 14.8012 3.12827
211 1 -24.1557 14.4 3.58769
212 1 -23.8796 13.6152 3.18709
213 1 -23.4283 13.9958 2.47026
214 1 -23.179 14.1527 1.56951
215 1 -23.0508 14.2741 0.597372
216 1 -22.3845 14.3546 -0.0961803
217 1 -21.4704 14.4139 -0.0939418
218 1 -20.5517 14.4248 0.207328
219 1 -19.8495 14.7271 0.746283
220 1 -19.3392 14.2458 1.36506
221 1 -18.4556 14.0013 1.5507
222 1 -17.6559 13.7865 1.92607
223 1 -16.853 13.4046 1.64928
224 1 -15.964 12.9939 1.66302
225 1 -15.3026 12.8141 2.38985
226 1 -14.8341 12.2435 2.97512
227 1 -14.437 11.7072 3.58096
228 1 -14.0072 10.878 3.73327
229 1 -14.1327 10.0669 3.43464
230 1 -13.2509 9.89253 3.29793
231 1 -12.7825 9.80399 2.50209
232 1 -11.9185 9.82173 2.05066
233 1 -11.036 9.40945 1.95001
234 1 -10.858 8.64524 1.39491
235 1 -10.083 8.60531 1.94524
236 1 -9.4486 8.84148 2.66337
237 1 -8.99747 9.40788 3.32983
238 1 -8.12968 9.5735 2.92461
239 1 -7.7737 10.2979 2.42906
240 1 -7.55714 10.4815 1.51805
241 1 -6.99404 10.3148 0.806149
242 1 -6.66688 10.4176 -0.135335
243 1 -5.94823 10.9035 -0.488228
244 1 -5.11324 11.3185 -0.330115
245 1 -4.2277 11.6615 -0.496009
246 1 -3.72502 11.998 0.253868
247 1 -2.99675 12.4068 0.649367
248 1 -2.11892 12.7941 0.693687
249 1 -2.00867 13.3045 1.46854
250 1 -2.06608 14.1122 0.968291
251 1 -1.17783 14.3668 0.885758
252 1 -0.239686 14.3637 0.803024
253 1 0.347896 15.0576 0.768401
254 1 1.28282 14.9327 0.819777
255 1 1.90374 14.3662 1.23444
256 1 2.15707 13.4497 1.30428
257 1 1.85857 12.7659 1.916
258 1 2.49635 12.1215 2.0377
259 1 2.90283 11.643 1.31862
260 1 3.60201 11.1876 0.985844
261 1 3.93737 10.3349 0.758758
262 1 4.2439 9.45063 0.966899
263 1 4.3131 8.99849 0.133082
264 1 4.55944 9.35438 -0.695598
265 1 5.41841 9.06423 -1.05811
266 1 6.24124 8.72669 -0.76913
267 1 6.72023 8.40015 0.0031578
268 1 6.773 7.73444 0.766317
269 1 7.55316 7.8583 1.30671
270 1 8.37972 8.20587 1.48539
271 1 8.67416 8.47304 0.688356
272 1 9.30315 8.23823 -0.0614572
273 1 9.75229 7.47869 0.188549
274 1 9.62343 6.53264 0.176662
275 1 10.2365 5.8149 0.127693
276 1 11.1209 5.54948 0.16157
277 1 11.7617 6.16555 0.576147
278 1 12.3784 6.80266 0.578394
279 1 12.9614 7.3738 1.07787
280 1 13.7385 6.85375 0.882617
281 1 14.4864 6.52885 1.44498
282 1 15.2498 6.66851 0.896097
283 1 15.5494 7.38184 1.46979
284 1 15.767 8.27936 1.50114
285 1 15.9395 8.50158 2.38648
286 1 16.8804 8.43467 2.21847
287 1 17.7392 8.73618 2.19083
288 1 18.6174 8.67188 1.98199
289 1 19.3763 8.67779 2.51572
290 1 19.7267 9.4655 2.97973
291 1 20.2354 9.96656 3.64785
292 1 21.0283 10.3265 3.95126
293 1 21.5874 9.83944 3.35374
294 1 22.5224 9.89156 3.03937
295 1 23.3501 9.4727 3.16441
296 1 24.1469 9.46821 3.71036
297 1 24.7061 8.82664 3.28324
298 1 24.9173 8.63118 4.23448
299 1 25.2969 8.10502 4.96685
300 1 26.087 8.64203 5.18019
301 1 27.0135 8.7039 4.88381
302 1 26.9361 7.76155 4.65899
303 1 27.8177 7.98716 4.36304
304 1 27.9849 7.69935 3.53457
305 1 27.9414 8.47054 2.94479
306 1 28.2004 9.4178 2.72498
307 1 29.1387 9.65687 2.55314
308 1 29.7787 10.0668 2.04334
309 1 30.5197 10.373 1.58893
310 1 31.3892 10.1421 1.86643
311 1 31.431 10.1517 0.904511
312 1 30.9678 10.4785 0.163197
313 1 31.254 11.2624 -0.362392
314 1 31.1496 12.2007 -0.39988
315 1 31.3352 13.1334 -0.414176
316 1 30.5374 13.5913 -0.565628
317 1 30.426 13.9776 -1.49062
318 1 30.4377 14.465 -2.29552
319 1 30.1067 14.1875 -3.16902
320 1 30.306 14.181 -4.10394
321 1 31.2003 13.8468 -4.11313
322 1 32.0112 13.4953 -4.48343
323 1 32.8656 13.2439 -4.27173
324 1 33.6785 13.4332 -3.83901
325 1 34.0901 13.3452 -4.73569
326 1 33.9179 13.3115 -5.68537
327 1 34.042 13.5501 -6.54188
328 1 34.0966 13.8744 -7.42154
329 1 33.8441 14.7929 -7.30772
330 1 34.4794 15.2049 -6.75757
331 1 35.2641 15.4506 -6.30018
332 1 35.5318 16.1582 -5.76758
333 1 36.0524 16.4959 -5.04223
334 1 36.3153 16.3279 -4.16174
335 1 36.6031 15.754 -3.42432
336 1 37.3315 16.1446 -2.98414
337 1 38.0124 16.7522 -2.87501
338 1 38.6395 17.1809 -2.28451
339 1 39.5017 17.2037 -1.95029
340 1 39.5901 17.6972 -2.77877
341 1 39.8195 18.4904 -2.30795
342 1 40.7214 18.9362 -2.31161
343 1 41.3207 18.3937 -1.79601
344 1 41.8248 17.5825 -1.67306
345 1 42.6549 17.8685 -2.02816
346 1 42.7005 18.5952 -2.60776
347 1 43.202 19.4223 -2.53613
348 1 44.0663 19.7895 -2.72258
349 1 44.8954 19.8114 -2.35953
350 1 45.2397 19.0298 -2.78533
351 1 45.9771 18.4256 -2.97023
352 1 46.0393 17.9271 -3.76656
353 1 46.9474 17.8734 -4.15245
354 1 47.8248 17.6625 -4.32934
355 1 48.6668 17.6436 -4.73848
356 1 49.1438 17.7972 -5.61767
357 1 48.4869 18.463 -5.83858
358 1 48.0409 19.1379 -6.26285
359 1 47.809 20.0498 -5.99786
360 1 48.0646 20.5083 -6.74919
361 1 48.6578 20.9225 -7.28778
362 1 48.4624 21.8267 -7.59689
363 1 48.3179 22.2498 -8.37408
364 1 48.5634 22.9456 -8.96268
365 1 49.2202 23.3852 -9.44394
366 1 49.857 23.8473 -9.94938
367 1 49.706 24.7262 -10.155
368 1 50.0404 25.1533 -10.966
369 1 50.4379 25.5058 -11.6957
370 1 50.1091 26.3749 -11.889
371 1 49.8442 26.965 -12.5263
372 1 50.4775 27.1596 -13.2282
373 1 50.0943 26.8986 -14.0005
374 1 49.7131 26.1273 -14.3464
375 1 49.8947 25.181 -14.3111
376 1 49.5092 24.8842 -15.1072
377 1 50.1872 24.2048 -15.059
378 1 50.7615 23.4912 -14.977
379 1 51.5531 23.5201 -15.4941
380 1 52.1148 23.563 -16.2525
381 1 52.2497 22.6483 -16.2971
382 1 52.3036 21.8287 -15.8238
383 1 52.52 21.9204 -14.9046
384 1 52.2174 21.793 -14.0083
385 1 52.4817 21.6377 -13.1302
386 1 53.3005 22.078 -13.1149
387 1 54.0557 21.589 -13.211
388 1 54.4096 20.8492 -13.7742
389 1 54.6717 20.7901 -12.8405
390 1 55.4468 20.5921 -12.1946
391 1 55.4912 20.3375 -11.3074
392 1 56.0069 20.4298 -10.5589
393 1 56.3332 20.0995 -9.69455
394 1 56.1274 19.6131 -8.92106
395 1 55.3694 19.5779 -8.38736
396 1 54.7791 19.547 -7.62493
397 1 54.3821 19.9179 -6.79576
398 1 55.2692 19.9846 -6.49901
399 1 56.0201 19.7839 -6.99851
400 1 56.407 19.0214 -7.33922
401 1 56.5085 18.0981 -7.11403
402 1 56.6539 17.325 -6.60344
403 1 57.028 16.4719 -6.78946
404 1 57.594 16.5028 -7.48736
405 1 58.2594 15.8518 -7.77419
406 1 58.4321 14.9686 -7.34517
407 1 58.5218 14.0079 -7.21912
408 1 58.4413 13.7982 -8.14691
409 1 58.9409 13.8704 -8.96396
410 1 59.6134 13.9814 -9.61179
411 1 59.7432 14.5239 -10.355
412 1 59.2574 14.6801 -11.2212
413 1 58.5582 15.1317 -11.7364
414 1 57.8725 15.2595 -12.4036
415 1 57.6289 14.7581 -13.185
416 1 56.8174 14.2389 -13.1171
417 1 55.9891 13.7389 -13.3111
418 1 55.5368 13.0124 -13.7183
419 1 54.6267 13.4003 -13.4612
420 1 55.118 14.1981 -13.2376
421 1 55.6045 15.0819 -13.4549
422 1 55.4613 15.6739 -14.1163
423 1 55.4537 15.7752 -15.0429
424 1 56.2036 15.776 -15.5234
425 1 56.8562 15.5704 -16.2145
426 1 57.7237 15.4935 -16.6077
427 1 58.2122 15.2571 -15.8437
428 1 59.1619 15.3077 -15.5437
429 1 59.5498 16.0068 -16.0145
430 1 60.0056 16.71 -16.4133
431 1 60.667 16.551 -17.096
432 1 61.4332 16.1426 -17.4816
433 1 62.2403 16.3063 -17.9867
434 1 63.1785 15.9655 -18.063
435 1 63.4201 15.4813 -17.3037
436 1 63.5057 16.1069 -16.5741
437 1 63.7999 16.9313 -16.2582
438 1 64.7355 16.7991 -16.3143
439 1 65.6298 16.421 -16.2128
440 1 66.2503 15.7144 -16.1654
441 1 66.6761 15.1715 -15.5024
442 1 66.7976 14.3766 -15.9251
443 1 66.889 13.5475 -15.5203
444 1 66.6503 13.5217 -14.5775
445 1 66.6728 14.4944 -14.3063
446 1 66.8242 15.4201 -13.9354
447 1 66.4982 16.0211 -13.3135
448 1 66.4109 15.9123 -12.3777
449 1 65.5916 15.8083 -11.8465