ITEM: TIMESTEP
1820000
ITEM: NUMBER OF ATOMS
512
ITEM: BOX BOUNDS mm mm mm
-2.5600000000000000e+02 2.5600000000000000e+02
-2.5600000000000000e+02 2.5600000000000000e+02
-2.5600000000000000e+02 2.5600000000000000e+02
ITEM: ATOMS id type x y z
1 1 -66.3517 12.0883 29.9858
2 1 -66.4492 11.7734 29.0672
3 1 -66.1273 12.1514 28.3078
4 1 -65.9645 12.0078 27.4091
5 1 -65.3227 11.9488 26.7493
6 1 -65.2651 11.7972 25.82
7 1 -65.0102 12.2504 25.0622
8 1 -64.5173 13.001 24.8003
9 1 -63.6114 12.9756 24.4948
10 1 -62.7107 12.8842 24.5958
11 1 -62.0765 13.4945 24.27
12 1 -61.7754 14.3514 23.9131
13 1 -61.916 15.1485 23.5198
14 1 -62.2143 15.3949 22.6333
15 1 -62.6464 15.5062 21.854
16 1 -63.3004 15.8834 21.1748
17 1 -63.5291 15.1614 20.6452
18 1 -64.0877 14.4106 20.4159
19 1 -64.3008 13.9769 19.5904
20 1 -64.5523 14.2963 18.7468
21 1 -64.822 14.8337 18.021
22 1 -64.9443 15.5135 17.3648
23 1 -65.2859 16.2065 16.7713
24 1 -64.915 16.2625 15.8691
25 1 -64.8445 16.33 14.9038
26 1 -64.282 16.4755 14.1449
27 1 -63.992 15.6387 13.8211
28 1 -63.9322 14.7199 13.6302
29 1 -63.7 13.8518 13.8508
30 1 -62.8695 13.3464 13.8565
31 1 -62.1351 12.7942 13.8456
32 1 -61.2764 12.6879 14.2284
33 1 -60.3856 12.5457 13.9105
34 1 -59.5942 12.9216 13.5779
35 1 -58.913 13.5441 13.7978
36 1 -58.5319 14.1299 13.1671
37 1 -58.1809 13.8786 12.3398
38 1 -58.8294 13.2066 12.1454
39 1 -59.4217 12.4758 12.0122
40 1 -58.6612 11.9034 11.7931
41 1 -58.3355 11.277 11.1664
42 1 -58.6168 10.5615 10.6525
43 1 -59.0394 9.86371 10.1659
44 1 -59.502 9.17949 9.65859
45 1 -60.0493 9.50751 9.02926
46 1 -59.9746 10.346 8.44587
47 1 -60.151 11.0034 7.86373
48 1 -60.9055 11.472 7.32872
49 1 -60.9142 12.3169 6.84472
50 1 -61.2314 12.8723 6.2
51 1 -61.093 13.4077 5.46057
52 1 -61.2934 13.3282 4.5732
53 1 -60.5637 13.9715 4.48916
54 1 -59.741 13.9671 4.00356
55 1 -58.9309 14.0365 3.44106
56 1 -58.2101 13.889 2.77849
57 1 -58.2035 14.0187 1.85906
58 1 -57.7091 13.7169 1.05354
59 1 -56.7972 13.6488 1.1159
60 1 -56.4746 12.8555 1.49101
61 1 -56.4026 12.1556 2.06622
62 1 -56.3789 11.5342 2.81278
63 1 -56.034 10.8604 3.37158
64 1 -56.3776 10.2234 4.01336
65 1 -57.0061 9.60749 4.38408
66 1 -57.9395 9.71798 4.52717
67 1 -58.7606 9.32678 4.29025
68 1 -59.0503 8.63517 3.74196
69 1 -58.6866 7.80302 3.40647
70 1 -57.7938 7.40467 3.25571
71 1 -56.9386 7.06108 3.50155
72 1 -56.1702 6.4998 3.51054
73 1 -55.3935 5.98295 3.35634
74 1 -55.345 5.32926 2.61317
75 1 -55.4908 5.29678 1.66696
76 1 -54.7837 4.87136 1.18998
77 1 -54.0404 4.34855 0.93783
78 1 -53.4403 4.94584 1.43079
79 1 -53.0848 5.15579 2.2959
80 1 -52.8115 5.84588 2.79185
81 1 -52.2015 6.50273 2.54011
82 1 -51.4756 6.08545 2.10864
83 1 -50.9594 6.70363 1.62686
84 1 -50.5067 7.36786 1.17172
85 1 -50.6954 8.22247 0.790939
86 1 -51.3389 8.85613 0.562159
87 1 -51.8446 9.53799 0.342276
88 1 -52.6285 9.90373 0.0462307
89 1 -53.004 9.98489 0.914064
90 1 -52.6618 10.6807 1.48788
91 1 -52.0023 10.9007 2.10654
92 1 -51.2985 11.4388 1.92374
93 1 -50.473 11.842 2.23
94 1 -50.2578 12.7477 2.40604
95 1 -50.3217 13.2484 1.64106
96 1 -50.4577 13.9183 0.989866
97 1 -50.9423 14.7425 1.03356
98 1 -50.9742 15.7015 1.15237
99 1 -51.2961 16.5169 0.824391
100 1 -50.7671 16.8944 0.101113
101 1 -50.3119 17.2001 -0.675607
102 1 -49.8638 17.7595 -1.25245
103 1 -49.8707 17.4493 -2.14221
104 1 -49.4342 17.1702 -2.92578
105 1 -49.3043 16.4718 -3.5649
106 1 -48.9564 15.6611 -3.93179
107 1 -48.3792 15.0346 -4.22978
108 1 -47.9694 14.3198 -4.62506
109 1 -47.4638 13.5339 -4.75593
110 1 -46.5071 13.628 -4.68507
111 1 -45.6805 13.1718 -4.5687
112 1 -45.6238 12.3617 -4.09274
113 1 -44.9961 11.7272 -3.67225
114 1 -44.4976 10.9879 -3.37257
115 1 -43.8221 10.3635 -3.045
116 1 -42.9651 9.96445 -3.20234
117 1 -42.1178 9.53789 -3.46611
118 1 -41.4201 8.97822 -3.70736
119 1 -40.6267 8.727 -4.06826
120 1 -39.8619 9.24211 -4.27415
121 1 -38.9413 9.47622 -4.60677
122 1 -38.152 9.6057 -5.14491
123 1 -37.4214 10.0882 -5.43066
124 1 -37.0645 10.931 -5.20767
125 1 -36.4607 11.6517 -5.45451
126 1 -35.811 12.3053 -5.20521
127 1 -35.0539 12.8356 -5.14844
128 1 -34.2583 13.3644 -5.12393
129 1 -33.7989 14.1213 -4.64297
130 1 -32.865 14.4528 -4.7015
131 1 -32.1051 13.9072 -4.53239
132 1 -31.6041 13.1719 -4.20779
133 1 -30.9311 12.6262 -3.77353
134 1 -31.282 12.129 -3.09103
135 1 -31.8362 11.3557 -2.87351
136 1 -32.407 10.6125 -2.76474
137 1 -32.0216 10.3595 -1.94002
138 1 -31.4692 10.6769 -1.25877
139 1 -30.6145 11.04 -0.94774
140 1 -29.6887 10.784 -0.793054
141 1 -28.8416 11.1508 -0.553486
142 1 -28.2582 11.5632 0.137501
143 1 -28.3991 12.4723 0.0978673
144 1 -28.5512 13.1147 -0.582277
145 1 -29.1693 13.4946 -1.15676
146 1 -29.577 14.3455 -1.3456
147 1 -29.8816 15.1711 -1.73417
148 1 -29.7154 16.1386 -2.06749
149 1 -29.0552 16.8392 -2.13863
150 1 -28.8207 17.6134 -2.59032
151 1 -28.6817 18.2121 -3.34352
152 1 -28.5057 17.9421 -4.20224
153 1 -29.167 18.0012 -4.90731
154 1 -29.3808 18.7236 -5.37611
155 1 -30.1541 19.2016 -5.62938
156 1 -30.078 19.4524 -6.53832
157 1 -29.6848 19.0468 -7.24641
158 1 -29.1162 18.439 -7.63105
159 1 -28.4335 17.8233 -7.81742
160 1 -28.305 16.8743 -7.96277
161 1 -27.6522 16.1964 -7.86581
162 1 -27.2287 15.6984 -7.20586
163 1 -27.3289 14.9692 -6.60492
164 1 -26.777 14.376 -6.02311
165 1 -25.9568 13.8789 -6.07515
166 1 -25.2265 13.7207 -5.46432
167 1 -24.4581 14.2701 -5.60404
168 1 -23.8966 14.5292 -4.88383
169 1 -23.3196 14.912 -4.26546
170 1 -23.3514 15.3709 -3.4493
171 1 -23.4043 15.6668 -2.56053
172 1 -22.8246 16.1994 -2.09491
173 1 -22.3013 16.7618 -1.51065
174 1 -22.0027 16.7805 -0.684249
175 1 -21.2353 16.8664 -0.221312
176 1 -20.2127 16.8805 -0.176599
177 1 -19.4984 16.8704 0.378467
178 1 -18.8443 17.1845 1.00713
179 1 -18.464 18.0072 0.909228
180 1 -17.9103 18.6434 1.35163
181 1 -17.3198 18.9615 2.02194
182 1 -16.6244 19.433 2.38343
183 1 -15.8136 19.9183 2.12814
184 1 -15.2484 20.6454 2.22068
185 1 -14.4596 20.9361 2.58581
186 1 -13.9732 21.4958 3.14999
187 1 -13.6163 21.9997 3.85838
188 1 -12.9512 21.6537 4.38788
189 1 -12.041 21.3991 4.53196
190 1 -11.346 21.6146 5.10518
191 1 -10.8399 22.4494 5.12646
192 1 -9.97396 22.7131 5.24235
193 1 -9.13931 23.1408 4.96894
194 1 -9.25538 24.0287 4.62445
195 1 -9.76463 24.8475 4.50743
196 1 -9.94286 25.7866 4.50124
197 1 -10.242 26.6257 4.26293
198 1 -10.578 27.3959 3.82093
199 1 -10.0701 28.2109 3.45796
200 1 -9.59259 28.7241 2.88944
201 1 -9.8781 29.1523 2.09007
202 1 -9.93634 29.5795 1.16409
203 1 -10.2431 29.3482 0.34447
204 1 -10.504 28.5425 -0.0827655
205 1 -10.9232 28.0663 -0.747069
206 1 -10.5214 27.4493 -1.33525
207 1 -10.0626 26.6953 -1.12315
208 1 -10.0948 25.7658 -0.869069
209 1 -9.42582 25.1189 -0.986278
210 1 -8.70386 24.5494 -0.96739
211 1 -8.13529 23.8758 -0.657441
212 1 -8.5001 23.2869 -0.0280565
213 1 -8.95135 22.7817 0.613639
214 1 -9.02899 22.1635 1.36908
215 1 -8.28911 22.1236 1.96513
216 1 -7.38217 22.0427 2.2739
217 1 -6.42277 22.2514 2.24153
218 1 -5.76995 21.7182 2.7546
219 1 -5.48557 21.767 3.63129
220 1 -5.42088 21.646 4.60781
221 1 -5.17485 21.0459 5.30512
222 1 -4.71138 20.2733 5.62096
223 1 -4.12478 19.7824 6.13506
224 1 -3.2455 20.0974 6.40153
225 1 -2.35808 19.7426 6.33741
226 1 -1.4146 19.4153 6.33818
227 1 -0.729657 19.9264 5.96292
228 1 -0.0568954 20.4209 6.41025
229 1 0.879649 20.5459 6.67794
230 1 1.60822 21.0929 6.70616
231 1 2.07949 21.9426 6.57157
232 1 2.48046 22.7857 6.37673
233 1 3.03862 23.5847 6.46418
234 1 3.17646 24.2903 5.80874
235 1 3.5642 24.8427 5.14994
236 1 4.23784 25.374 4.78933
237 1 4.59907 25.8438 4.10939
238 1 5.27185 26.2129 3.62058
239 1 5.44353 26.9373 3.04191
240 1 5.88957 27.6723 2.67423
241 1 6.43219 28.4578 2.58123
242 1 6.80029 29.1092 2.00602
243 1 7.44161 29.687 1.80048
244 1 8.19995 30.2077 2.14338
245 1 8.99824 30.2763 2.72018
246 1 9.69871 30.1755 2.1409
247 1 10.3114 30.2734 1.37485
248 1 10.6174 30.089 0.507054
249 1 11.0509 29.6439 -0.140359
250 1 11.9635 29.5433 -0.0152787
251 1 12.7389 29.6913 0.480204
252 1 13.148 28.8836 0.487318
253 1 13.0255 27.9702 0.770053
254 1 13.1319 27.1815 1.33288
255 1 13.246 26.5323 1.9572
256 1 13.2869 25.9667 2.70549
257 1 13.3956 25.1913 3.21461
258 1 13.2434 24.2071 3.35927
259 1 12.5609 23.6065 3.12618
260 1 12.0592 23.2969 2.42664
261 1 11.7276 22.6645 1.85424
262 1 11.9481 22.4648 0.97374
263 1 12.2713 21.8198 0.397713
264 1 11.9965 20.9391 -0.0784129
265 1 12.1754 20.1658 -0.624273
266 1 12.5241 19.5444 -1.23574
267 1 13.2982 19.6682 -1.7917
268 1 13.737 20.2238 -2.44943
269 1 14.5679 20.0659 -2.90897
270 1 15.0449 20.8594 -3.10128
271 1 15.9824 20.9544 -3.1253
272 1 16.2648 21.8842 -3.09455
273 1 16.8925 22.4228 -2.59307
274 1 17.5453 22.7433 -2.01504
275 1 18.4321 22.9533 -1.80133
276 1 18.8496 22.8973 -0.918616
277 1 19.2185 23.3761 -0.220002
278 1 19.6798 23.786 0.512082
279 1 19.9854 24.5719 0.897156
280 1 20.4597 25.1587 1.3624
281 1 21.2503 25.6428 1.11378
282 1 21.2783 26.556 1.2962
283 1 20.8325 27.3632 1.25206
284 1 20.3286 28.079 0.952134
285 1 19.9675 28.8617 0.486514
286 1 19.0579 28.6064 0.27639
287 1 18.812 28.6068 -0.629488
288 1 18.8008 28.2724 -1.48709
289 1 18.4595 27.4998 -1.82707
290 1 18.2683 26.5922 -2.16475
291 1 18.8866 26.0146 -2.68491
292 1 19.6084 25.5162 -3.12378
293 1 19.7592 24.7008 -3.61555
294 1 19.657 23.8089 -3.90221
295 1 19.4088 23.2972 -4.66168
296 1 19.5009 22.4884 -5.11267
297 1 20.1954 22.1284 -5.5439
298 1 20.7605 21.7256 -6.11261
299 1 21.1284 21.6843 -6.98281
300 1 21.1513 21.2729 -7.83879
301 1 21.5939 20.5898 -8.23877
302 1 22.0464 19.8977 -8.60949
303 1 22.9217 19.5072 -8.85339
304 1 23.7396 19.6423 -9.26795
305 1 24.5922 19.2896 -9.24223
306 1 25.4901 19.4612 -9.21412
307 1 26.217 19.9141 -9.65536
308 1 26.6819 20.3229 -8.9974
309 1 26.6356 20.7091 -8.20199
310 1 26.7663 20.978 -7.27885
311 1 27.0373 20.4588 -6.54044
312 1 27.0927 19.5622 -6.41011
313 1 27.8347 19.2847 -5.92728
314 1 28.5407 18.7787 -5.48517
315 1 27.7288 18.4265 -5.03889
316 1 27.803 18.7281 -4.17917
317 1 27.3114 19.017 -3.43108
318 1 27.7427 19.24 -2.63822
319 1 28.0301 19.2635 -1.74555
320 1 28.539 18.9406 -1.01123
321 1 28.5563 19.3514 -0.172246
322 1 28.4635 19.067 0.707565
323 1 28.4419 19.0974 1.66813
324 1 28.4154 19.1989 2.59166
325 1 28.791 19.7588 3.2271
326 1 29.6539 19.9723 3.58521
327 1 29.6991 19.9422 4.54389
328 1 29.4273 19.748 5.40537
329 1 29.6398 20.2077 6.14692
330 1 29.7401 20.2649 7.0772
331 1 30.0943 20.5299 7.88438
332 1 30.7258 20.2656 8.57212
333 1 31.3407 20.4235 9.36242
334 1 31.7303 19.9297 10.0586
335 1 32.3621 19.5982 10.6031
336 1 32.3998 18.7071 10.6485
337 1 32.6125 18.0322 10.0324
338 1 32.9964 17.2265 10.1957
339 1 33.4595 16.4027 10.3359
340 1 34.2139 15.8984 10.2483
341 1 34.9914 16.3098 9.90703
342 1 35.4335 16.2215 9.09427
343 1 35.5719 15.9426 8.19874
344 1 35.9006 15.198 7.70946
345 1 36.4872 14.8504 7.07792
346 1 37.3208 14.7065 6.64698
347 1 37.8977 14.6364 5.85812
348 1 37.5097 14.6841 5.02431
349 1 36.8343 14.8441 4.4186
350 1 36.128 15.1231 3.86784
351 1 35.6092 15.7899 3.47667
352 1 35.4264 16.2344 2.64371
353 1 35.2025 17.0909 2.78647
354 1 34.6057 17.749 2.73062
355 1 33.8533 18.057 3.17872
356 1 33.5344 18.4304 3.9821
357 1 33.1666 18.6763 4.84816
358 1 33.6868 19.297 5.35087
359 1 34.2912 19.5474 5.99408
360 1 35.1741 19.5532 6.28495
361 1 36.0702 19.6375 6.52312
362 1 36.9415 19.2219 6.51878
363 1 37.7196 19.6047 6.20131
364 1 38.653 19.7589 6.05854
365 1 39.3873 20.2893 6.21384
366 1 40.2783 20.1313 6.59068
367 1 40.7825 20.5145 7.27958
368 1 41.4724 20.0386 6.86861
369 1 42.0518 19.5916 6.38848
370 1 42.5964 18.8096 6.18313
371 1 43.0115 18.0487 6.62825
372 1 43.7924 18.1067 7.15975
373 1 44.5882 18.1534 7.56693
374 1 45.4107 18.7129 7.54394
375 1 46.2682 18.5978 7.11898
376 1 47.0699 18.4281 6.69818
377 1 47.9917 18.4423 6.67096
378 1 48.7231 18.2827 7.23339
379 1 49.4502 18.5214 7.72
380 1 50.0847 19.307 7.62785
381 1 50.7496 19.5134 7.01465
382 1 51.6449 19.6192 6.94115
383 1 52.4295 19.103 6.97985
384 1 53.3482 18.8294 6.91656
385 1 53.6702 18.0292 7.34296
386 1 54.1842 17.4493 6.81546
387 1 54.4062 17.555 5.91928
388 1 54.9037 17.8107 5.07834
389 1 55.3407 17.0408 4.67077
390 1 55.7827 16.9222 3.73698
391 1 55.5056 17.5025 3.03996
392 1 54.9658 18.195 2.82027
393 1 54.1537 18.5852 2.67185
394 1 53.3859 19.1877 2.62973
395 1 52.9007 19.5026 1.93321
396 1 52.1901 19.6771 1.37857
397 1 51.3837 20.0959 1.04995
398 1 50.8458 20.6421 0.447903
399 1 50.3422 21.3226 0.0152288
400 1 50.3364 22.2903 -0.108892
401 1 51.194 22.2642 0.245049
402 1 51.9894 22.4619 0.64245
403 1 52.9252 22.4429 0.365651
404 1 52.9079 22.9445 -0.482775
405 1 53.0748 22.7776 -1.4136
406 1 53.1566 23.1222 -2.30923
407 1 53.9228 23.0074 -2.78553
408 1 54.7259 23.1007 -3.28661
409 1 55.4449 22.8236 -2.76816
410 1 55.656 22.9243 -1.82531
411 1 55.2236 23.2482 -1.05858
412 1 54.5569 23.1798 -0.388857
413 1 54.3104 22.6929 0.41887
414 1 54.1437 22.2424 1.2246
415 1 54.2653 21.8087 2.04561
416 1 54.0963 21.236 2.77605
417 1 53.3039 20.7672 3.02552
418 1 52.9263 20.8136 3.93753
419 1 52.9547 20.8484 4.87158
420 1 52.9438 21.1254 5.80489
421 1 52.1654 21.048 6.32037
422 1 51.2712 21.189 6.42577
423 1 50.4515 21.5395 6.23494
424 1 50.1667 22.2576 6.76104
425 1 49.6227 23.0332 6.82175
426 1 49.0951 23.8274 6.60318
427 1 48.5085 24.4102 6.15576
428 1 48.6287 24.653 5.2261
429 1 49.4062 25.0596 4.74581
430 1 49.5102 25.2692 3.81764
431 1 50.2022 25.4703 3.26652
432 1 50.6005 25.818 2.52017
433 1 51.2872 26.0611 1.80653
434 1 52.0983 26.4093 1.56822
435 1 52.9742 26.7717 1.53341
436 1 53.8159 27.1848 1.63247
437 1 54.7245 26.8383 1.65364
438 1 55.6851 26.7251 1.66276
439 1 56.4215 26.3154 1.27817
440 1 57.228 25.9218 1.15126
441 1 57.9235 25.5217 0.605082
442 1 58.6983 25.0551 0.363624
443 1 59.3825 24.5166 0.0283101
444 1 59.9684 23.8936 -0.313162
445 1 59.5139 23.6739 -1.11404
446 1 59.053 23.7173 -1.93342
447 1 59.2068 23.9669 -2.83255
448 1 59.3697 23.6361 -3.70806
449 1 59.7746 23.095 -4.37828
450 1 60.2137 23.7427 -4.92813
451 1 59.9757 24.6358 -4.73549
452 1 59.8659 25.4705 -4.37605
453 1 59.218 25.9793 -4.93812
454 1 58.3945 26.1636 -5.38578
455 1 57.4444 26.1283 -5.668
456 1 56.6129 26.0886 -6.01431
457 1 56.3041 26.2922 -6.88299
458 1 55.8796 26.5348 -7.73493
459 1 55.6992 27.3291 -8.14032
460 1 55.4405 28.2211 -8.07903
461 1 56.1182 28.8653 -8.14183
462 1 56.6916 29.6039 -8.41584
463 1 56.9729 30.3107 -7.83839
464 1 57.2528 31.1086 -7.46616
465 1 57.8764 31.8784 -7.3692
466 1 58.4198 32.4689 -6.78487
467 1 58.9901 32.0971 -6.0974
468 1 59.1043 31.852 -5.18683
469 1 59.2088 31.7994 -4.23397
470 1 59.4882 31.7555 -3.32729
471 1 59.812 31.6959 -2.46927
472 1 59.9106 31.8311 -1.56105
473 1 60.0754 31.6402 -0.652202
474 1 60.2292 30.9781 -0.0110001
475 1 59.8433 30.152 0.318296
476 1 59.4526 29.2524 0.275972
477 1 59.3932 28.3344 0.336811
478 1 59.812 27.9687 1.08907
479 1 59.6495 28.3425 1.91973
480 1 60.3791 28.094 2.5047
481 1 61.1978 28.5455 2.61089
482 1 61.892 29.1185 2.7103
483 1 62.3994 29.7984 2.99938
484 1 62.9408 30.4467 3.3977
485 1 62.8782 31.2119 3.9937
486 1 63.2371 31.6366 4.75992
487 1 63.4437 31.4127 5.68392
488 1 64.0534 30.9978 6.27502
489 1 63.9426 31.0666 7.21635
490 1 64.0093 31.0498 8.15565
491 1 64.2757 31.134 9.12763
492 1 64.5107 31.8111 9.73774
493 1 64.9836 32.6342 9.60459
494 1 64.8027 33.3994 10.1102
495 1 65.0523 33.9764 10.9128
496 1 65.7025 34.5487 11.388
497 1 66.4357 34.9233 11.9169
498 1 67.1292 35.4047 12.3314
499 1 67.5395 35.7205 13.0535
500 1 68.2427 35.8913 13.6351
501 1 68.9962 35.2885 13.4721
502 1 69.6991 35.1854 12.8799
503 1 70.6021 35.2292 12.8054
504 1 71.2066 34.6309 13.1328
505 1 71.5027 33.8391 13.5419
506 1 71.1925 33.4491 14.3318
507 1 71.063 33.3819 15.2587
508 1 71.7977 33.0085 15.7296
509 1 72.5339 32.5742 16.1101
510 1 72.969 32.1 15.4462
511 1 73.8467 32.011 15.8093
512 1 74.2215 32.8523 16.0234
ITEM: TIMESTEP
1830000
ITEM: NUMBER OF ATOMS
512
ITEM: BOX BOUNDS mm mm mm
-2.5600000000000000e+02 2.5600000000000000e+02
-2.5600000000000000e+02 2.5600000000000000e+02
-2.5600000000000000e+02 2.5600000000000000e+02
ITEM: ATOMS id type x y z
1 1 -63.2885 20.6754 26.9303
2 1 -63.1085 20.4398 26.0615
3 1 -62.3454 20.0628 25.6265
4 1 -61.6455 19.4574 25.4355
5 1 -61.1751 18.9144 24.7475
6 1 -60.3346 19.1085 24.2023
7 1 -60.3696 18.676 23.3506
8 1 -59.4659 18.6996 23.1093
9 1 -59.0246 18.5061 22.2855
10 1 -58.7245 19.2818 21.7905
11 1 -58.9884 19.6183 20.9373
12 1 -58.6548 19.7379 20.0654
13 1 -58.3844 19.8929 19.1535
14 1 -58.0445 19.9589 18.2417
15 1 -58.5831 19.5386 17.6266
16 1 -58.9833 19.3701 16.828
17 1 -58.9776 18.6722 16.1785
18 1 -59.0418 17.8435 15.7607
19 1 -59.1349 16.9189 15.7747
20 1 -58.7803 16.1013 15.6248
21 1 -58.5576 15.1826 15.5225
22 1 -58.8309 14.2669 15.5413
23 1 -58.7098 13.3999 15.7409
24 1 -59.0304 12.5294 15.4059
25 1 -58.9946 11.7202 15.9641
26 1 -58.4209 11.1027 16.333
27 1 -57.8378 10.7631 16.9551
28 1 -57.0406 10.6398 17.4994
29 1 -56.6361 10.3376 18.305
30 1 -55.7707 10.2793 18.4361
31 1 -55.0725 10.2898 17.8309
32 1 -54.2172 10.1859 17.3955
33 1 -53.8935 10.1418 16.521
34 1 -53.2965 10.2447 15.7457
35 1 -52.9631 10.2335 14.8464
36 1 -52.4168 10.2922 14.0494
37 1 -52.2484 10.5196 13.1745
38 1 -52.2476 11.0383 12.4188
39 1 -52.9172 11.5598 12.0434
40 1 -53.1852 11.8646 11.1869
41 1 -53.6686 12.1073 10.4218
42 1 -54.205 11.5566 9.77699
43 1 -54.4041 10.6802 9.5386
44 1 -54.7882 10.0842 8.89465
45 1 -55.1683 9.20108 9.03442
46 1 -55.1345 8.30714 9.19591
47 1 -55.845 7.90499 9.62473
48 1 -56.6744 7.7748 9.99671
49 1 -57.3573 7.80362 10.5717
50 1 -57.9972 8.35317 10.2021
51 1 -58.669 8.26914 9.46774
52 1 -59.1844 8.59806 8.7638
53 1 -59.593 9.30145 8.38334
54 1 -59.8528 10.1635 8.08287
55 1 -59.9006 10.7726 7.31584
56 1 -60.4039 11.1131 6.58576
57 1 -60.2388 11.3108 5.73073
58 1 -59.9094 11.4847 4.8877
59 1 -59.7267 11.9776 4.11272
60 1 -59.4966 12.0767 3.22985
61 1 -60.0233 12.3364 2.5059
62 1 -59.8199 12.2787 1.61526
63 1 -59.414 11.9451 0.873179
64 1 -58.777 11.7608 0.173918
65 1 -58.6465 10.9166 -0.205127
66 1 -58.6013 10.2233 -0.849221
67 1 -58.2636 9.48074 -1.36268
68 1 -57.9532 8.87981 -2.03624
69 1 -57.4132 8.12622 -2.30861
70 1 -56.886 7.33013 -2.08907
71 1 -56.8419 6.53929 -2.53284
72 1 -56.1349 6.16573 -2.99639
73 1 -55.2792 5.79959 -3.17644
74 1 -54.4911 5.46642 -3.56688
75 1 -53.623 5.22674 -3.79199
76 1 -52.7657 5.42598 -3.46009
77 1 -52.178 6.09285 -3.14362
78 1 -51.3194 6.47641 -3.22593
79 1 -50.5161 6.82547 -3.44951
80 1 -49.6689 7.01175 -3.8208
81 1 -48.7554 7.23992 -3.73001
82 1 -47.9883 7.6966 -3.66832
83 1 -47.7213 8.4707 -4.09789
84 1 -47.5242 9.37991 -4.04601
85 1 -47.3199 10.2757 -3.99729
86 1 -47.4942 11.1827 -3.80663
87 1 -47.9849 11.0592 -2.96613
88 1 -48.4823 10.6387 -2.27631
89 1 -48.4988 10.2482 -1.3995
90 1 -48.1071 10.6714 -0.654828
91 1 -47.3253 11.055 -0.966921
92 1 -47.8158 11.5384 -1.58942
93 1 -47.9738 12.2916 -2.16387
94 1 -47.2643 12.252 -2.78027
95 1 -46.417 12.0023 -3.00055
96 1 -45.636 11.8335 -3.52613
97 1 -45.1884 12.5712 -3.904
98 1 -44.3272 13.0498 -3.95501
99 1 -43.4589 13.3308 -4.03626
100 1 -42.5353 13.1127 -3.7808
101 1 -41.8146 13.7308 -3.81232
102 1 -41.7164 14.5888 -4.27267
103 1 -42.3952 15.2591 -3.99824
104 1 -43.0233 14.8018 -3.44279
105 1 -42.7536 14.9872 -2.5342
106 1 -42.4805 15.0062 -1.60699
107 1 -42.6891 14.9946 -0.706146
108 1 -42.5038 15.3238 0.0939608
109 1 -42.1419 15.2651 0.987734
110 1 -41.8926 14.6471 1.72848
111 1 -41.1562 14.1796 1.95838
112 1 -40.8858 13.288 1.97669
113 1 -40.907 12.3336 2.00936
114 1 -41.2995 11.6628 2.60192
115 1 -42.0442 11.1025 2.58907
116 1 -42.4833 10.2835 2.39021
117 1 -41.8323 9.69463 2.64207
118 1 -40.943 9.33651 2.64888
119 1 -40.1732 9.43354 2.16773
120 1 -40.3006 9.5873 1.26006
121 1 -39.8069 9.97492 0.523343
122 1 -40.1022 10.7523 0.0349706
123 1 -40.4633 11.5392 -0.205415
124 1 -41.0729 12.2586 -0.165198
125 1 -41.1165 12.8635 -0.848516
126 1 -40.2485 12.9554 -1.14403
127 1 -39.3417 12.835 -1.4176
128 1 -38.6316 12.9154 -2.0255
129 1 -38.0367 13.204 -2.70285
130 1 -37.1709 13.5442 -3.10503
131 1 -36.7099 14.3415 -3.21966
132 1 -36.0594 15.0557 -3.35577
133 1 -35.488 15.7674 -3.68833
134 1 -35.1166 16.3742 -4.22106
135 1 -34.3294 16.5056 -4.68502
136 1 -33.6928 17.1374 -5.01427
137 1 -32.7918 17.3929 -5.12623
138 1 -31.8518 17.4927 -5.00385
139 1 -30.9024 17.5064 -4.78922
140 1 -30.201 18.0751 -4.96646
141 1 -29.4651 18.4929 -5.41709
142 1 -28.9377 19.1418 -5.80652
143 1 -28.3866 19.7447 -6.27285
144 1 -27.5904 19.9946 -6.73718
145 1 -27.693 20.2948 -7.66228
146 1 -27.888 20.6476 -8.54127
147 1 -28.5618 21.0299 -9.04558
148 1 -29.412 21.3083 -9.40144
149 1 -30.3331 21.2561 -9.28461
150 1 -31.1715 20.8424 -9.32984
151 1 -31.6513 20.0258 -9.23954
152 1 -32.0829 19.6959 -8.4932
153 1 -32.1037 19.5511 -7.59243
154 1 -31.6677 18.9405 -7.02218
155 1 -31.3425 18.0862 -7.29522
156 1 -30.5015 17.7909 -7.60687
157 1 -29.5526 17.638 -7.71191
158 1 -28.694 17.1805 -7.78844
159 1 -28.1009 16.6566 -8.23383
160 1 -27.5265 15.928 -8.42113
161 1 -26.8856 16.3943 -7.96947
162 1 -26.7841 16.0453 -7.09914
163 1 -26.443 15.9309 -6.2862
164 1 -25.878 15.3792 -5.72668
165 1 -24.9154 15.2956 -5.4681
166 1 -24.0323 15.6467 -5.45072
167 1 -23.1315 15.3906 -5.2724
168 1 -22.2206 15.244 -5.29777
169 1 -21.3227 15.5119 -5.21792
170 1 -20.6712 15.6274 -4.5586
171 1 -20.2 15.3049 -3.876
172 1 -20.3091 14.8565 -3.05642
173 1 -19.6109 15.0584 -2.4799
174 1 -19.2776 15.2645 -1.63667
175 1 -18.4747 15.1591 -1.0938
176 1 -17.9281 15.3734 -0.389412
177 1 -17.2082 15.5136 0.226769
178 1 -16.3866 15.7661 0.634753
179 1 -15.743 16.4343 0.839713
180 1 -15.5485 17.2597 0.352589
181 1 -15.7608 18.1071 0.0491962
182 1 -16.6513 18.3776 0.132799
183 1 -17.1117 19.0231 -0.419254
184 1 -17.8276 19.5379 -0.706388
185 1 -18.441 19.9547 -1.25211
186 1 -19.0674 20.2796 -0.647988
187 1 -19.2987 20.7866 0.130252
188 1 -19.4975 20.9848 1.02449
189 1 -19.668 20.8952 1.97271
190 1 -19.2312 20.8534 2.80561
191 1 -18.9116 20.398 3.60118
192 1 -18.3771 21.0045 4.07895
193 1 -18.5726 21.8372 4.56511
194 1 -18.2488 22.6127 4.15008
195 1 -18.0209 23.5165 3.95704
196 1 -17.5366 24.3289 4.19465
197 1 -16.9573 25.0354 4.31575
198 1 -16.3509 25.7509 4.47803
199 1 -15.7397 26.2995 4.04068
200 1 -14.8276 26.4969 3.96466
201 1 -14.7134 27.2442 3.36617
202 1 -14.8087 27.9943 2.78836
203 1 -14.7467 28.8233 2.29865
204 1 -14.0258 28.9603 1.70783
205 1 -13.298 28.917 1.19647
206 1 -12.6667 28.8429 0.475008
207 1 -11.7746 28.5165 0.396363
208 1 -10.8691 28.6307 0.0902459
209 1 -10.0846 28.6851 -0.415631
210 1 -9.48501 27.9851 -0.122778
211 1 -9.05095 27.3626 0.430301
212 1 -8.58076 27.0011 1.16639
213 1 -7.73642 26.8913 0.734281
214 1 -6.85938 26.9287 0.334925
215 1 -5.90417 26.8311 0.298105
216 1 -5.04347 26.818 0.662382
217 1 -4.37664 26.9287 1.27243
218 1 -3.43445 27.1581 1.39201
219 1 -2.71874 27.7265 1.02234
220 1 -2.12617 27.2726 0.404435
221 1 -1.90237 26.4026 0.115848
222 1 -1.80184 25.6885 0.711135
223 1 -1.24108 25.0576 1.12147
224 1 -1.19974 24.2679 1.65896
225 1 -1.05908 23.3586 1.72407
226 1 -0.152819 22.9978 1.59104
227 1 0.64133 22.6377 1.67859
228 1 1.50859 22.7014 2.0778
229 1 2.21748 22.9129 2.62029
230 1 2.97098 22.5929 3.1759
231 1 3.31065 22.2879 3.96165
232 1 3.36339 22.5198 4.83546
233 1 3.85773 22.322 5.61583
234 1 4.38843 22.8796 6.13166
235 1 4.8694 23.5089 6.70128
236 1 5.30518 24.3099 6.85101
237 1 6.04143 24.8626 6.52839
238 1 6.89278 24.8434 5.98617
239 1 7.49466 25.2178 5.33338
240 1 7.79547 24.8438 4.55302
241 1 8.51438 24.3999 4.20645
242 1 9.20952 24.7324 3.64936
243 1 9.54615 25.4565 3.10037
244 1 9.71709 25.3883 2.24466
245 1 9.36063 26.105 1.67141
246 1 9.4152 26.9362 1.15664
247 1 9.5725 27.6053 1.88754
248 1 9.74294 28.4389 2.15968
249 1 9.74788 29.3491 2.44877
250 1 10.1916 30.2699 2.61502
251 1 10.2384 30.9637 3.2415
252 1 10.4022 30.6527 4.14679
253 1 11.2604 30.3226 3.85885
254 1 11.7896 29.7877 4.42279
255 1 12.7275 29.6919 4.25503
256 1 13.5799 29.3555 4.16856
257 1 14.2395 28.9249 3.68986
258 1 15.0018 28.4176 3.45068
259 1 15.442 28.1117 2.65979
260 1 16.1461 28.0072 2.02483
261 1 16.2062 28.0406 1.13327
262 1 16.6387 28.2737 0.326047
263 1 16.3267 27.6003 -0.344479
264 1 15.9527 27.4544 -1.19501
265 1 15.6953 26.8162 -1.86704
266 1 15.612 25.9616 -2.1872
267 1 15.8687 25.0483 -2.29977
268 1 16.4937 24.381 -2.3644
269 1 16.8844 24.4207 -3.21126
270 1 17.3622 24.643 -3.98015
271 1 18.2448 24.682 -4.347
272 1 18.8774 23.9674 -4.59341
273 1 19.7417 23.6292 -4.53283
274 1 20.204 23.7198 -3.69889
275 1 20.5454 24.0362 -2.96527
276 1 20.6274 24.7392 -2.40034
277 1 21.0188 25.5003 -1.99274
278 1 20.7269 26.2807 -1.5381
279 1 20.1723 27.025 -1.71367
280 1 19.3826 27.5021 -1.66743
281 1 18.6408 28.1043 -1.38974
282 1 18.1124 28.5965 -0.837019
283 1 17.557 29.0199 -0.147999
284 1 17.4031 29.6981 0.505122
285 1 16.9193 30.535 0.562023
286 1 16.3946 31.1381 0.0785116
287 1 16.448 31.1957 -0.813849
288 1 16.3611 30.9393 -1.73374
289 1 16.0911 30.5179 -2.56622
290 1 16.0986 30.3646 -3.47385
291 1 16.3656 29.9888 -4.25993
292 1 16.7611 29.1702 -4.51297
293 1 16.8057 28.2349 -4.28937
294 1 16.8782 27.5931 -3.60031
295 1 17.464 26.9768 -3.30423
296 1 18.3709 26.8687 -3.15886
297 1 19.2762 26.8341 -2.84437
298 1 20.0419 27.2253 -3.20326
299 1 20.7814 27.3455 -3.77965
300 1 21.3084 26.8795 -4.36476
301 1 21.5932 26.1646 -4.88517
302 1 22.4959 26.3708 -5.10901
303 1 22.6656 25.9083 -5.88123
304 1 21.8258 25.4651 -5.90294
305 1 21.3733 24.9446 -6.52486
306 1 21.1791 24.0178 -6.59019
307 1 21.145 23.0959 -6.8264
308 1 21.1517 22.1292 -6.8667
309 1 21.4774 21.6724 -6.10026
310 1 22.1046 21.6956 -5.38607
311 1 22.8993 22.092 -5.02491
312 1 23.7497 22.3474 -5.25952
313 1 24.114 23.142 -5.55637
314 1 24.983 23.4759 -5.82976
315 1 25.7469 22.9015 -5.80096
316 1 26.5133 22.3777 -5.61212
317 1 27.0345 21.9491 -4.98845
318 1 27.7568 21.9163 -4.38837
319 1 28.0564 22.4156 -3.56625
320 1 28.9518 22.7045 -3.65136
321 1 29.03 23.2271 -2.88373
322 1 29.6246 23.4335 -2.20646
323 1 30.2244 24.1049 -1.79841
324 1 30.7525 24.4139 -1.03945
325 1 30.1894 23.9275 -0.481516
326 1 29.9464 24.0091 0.398409
327 1 29.5308 23.4043 1.01077
328 1 29.3709 22.5039 1.25808
329 1 29.0146 22.2968 2.11448
330 1 29.4711 22.3863 2.91552
331 1 29.3402 22.6559 3.82581
332 1 29.5946 22.8173 4.70251
333 1 29.6571 22.5033 5.65366
334 1 30.2407 22.371 6.34332
335 1 30.77 21.8611 6.96825
336 1 30.688 21.006 7.3071
337 1 31.145 20.124 7.21834
338 1 31.451 19.2509 7.09601
339 1 31.2572 18.3659 6.78786
340 1 31.5722 17.7075 6.218
341 1 31.8933 16.9026 5.88739
342 1 32.4894 16.1607 6.09475
343 1 33.2989 16.2529 6.53264
344 1 33.925 16.2301 7.20884
345 1 34.7588 16.3943 7.57649
346 1 35.0615 17.0024 6.9378
347 1 35.177 17.6298 6.26235
348 1 35.2588 17.6777 5.29473
349 1 35.1637 17.3569 4.43915
350 1 35.8349 17.2718 3.76673
351 1 36.565 17.8362 3.81464
352 1 37.145 18.308 4.37168
353 1 37.0243 19.2381 4.33194
354 1 37.168 20.0067 3.82624
355 1 37.0563 20.8455 3.36116
356 1 37.0612 21.7708 3.47263
357 1 37.3899 22.5925 3.21693
358 1 38.0945 22.8165 2.6766
359 1 38.5244 23.1836 3.45509
360 1 39.398 23.1099 3.75166
361 1 40.2683 23.297 3.85242
362 1 41.1377 23.3774 4.12585
363 1 41.8312 23.4051 4.77768
364 1 42.0022 22.9019 5.58265
365 1 41.5795 22.094 5.80189
366 1 41.9728 21.3035 6.12346
367 1 42.5064 20.5501 6.37468
368 1 43.312 20.0145 6.35479
369 1 44.1218 20.0378 5.87963
370 1 44.7384 20.4892 5.30482
371 1 45.5656 20.8458 5.65649
372 1 46.0697 21.6574 5.72346
373 1 46.6783 22.0575 6.22838
374 1 47.4569 22.3633 6.50933
375 1 48.0302 22.3462 7.25652
376 1 48.6043 22.8808 7.79199
377 1 48.2254 23.5145 8.40396
378 1 47.6872 24.1576 7.94176
379 1 46.9017 24.63 8.23125
380 1 46.2127 24.7012 7.53031
381 1 45.9014 24.1166 6.82797
382 1 45.4299 23.6105 6.17267
383 1 45.2806 23.6099 5.2657
384 1 45.383 23.3686 4.37923
385 1 45.7092 23.9402 3.76723
386 1 45.4357 24.1703 2.86075
387 1 45.9571 23.9131 2.09672
388 1 46.4635 23.6243 1.33864
389 1 47.0756 22.8936 1.21453
390 1 46.9358 22.2674 0.491506
391 1 46.727 21.9612 -0.352781
392 1 45.8679 21.7097 -0.606685
393 1 44.9817 21.6296 -0.83987
394 1 45.1271 22.031 -1.69997
395 1 45.2194 22.5214 -2.5654
396 1 46.0663 22.5931 -2.92025
397 1 46.9232 22.8735 -3.11505
398 1 47.8629 22.8333 -3.50358
399 1 48.5204 22.5813 -4.07194
400 1 49.3339 22.8962 -3.68865
401 1 50.0275 22.7881 -3.09987
402 1 50.8767 22.4496 -2.99414
403 1 51.7837 22.5336 -2.83557
404 1 52.5915 22.1702 -2.5291
405 1 53.0234 21.9247 -1.69558
406 1 53.7041 22.0667 -1.09013
407 1 54.4032 21.9551 -0.534439
408 1 55.2173 22.4492 -0.370501
409 1 55.3975 22.9744 0.426277
410 1 54.9879 23.5478 1.11245
411 1 54.2479 23.9938 1.47433
412 1 53.5457 24.5121 1.1093
413 1 53.2546 25.2991 1.49305
414 1 52.3759 25.614 1.74462
415 1 51.5664 25.525 2.1619
416 1 50.9265 25.4369 2.84491
417 1 50.7469 25.0439 3.64407
418 1 50.2582 25.4509 4.35351
419 1 49.4693 25.8714 4.70375
420 1 49.1039 26.6597 4.47872
421 1 49.1426 27.3127 3.88489
422 1 49.3975 28.2549 3.97979
423 1 49.5926 29.0424 3.55456
424 1 50.1629 29.7761 3.34524
425 1 50.9864 29.7116 2.88443
426 1 51.7754 29.3071 2.8852
427 1 52.6493 29.4199 3.04247
428 1 53.1379 28.8974 2.46186
429 1 53.2537 28.3562 1.71229
430 1 53.8524 28.4019 0.937013
431 1 54.5563 27.8929 0.477069
432 1 54.4044 27.2107 -0.21912
433 1 55.0622 26.728 -0.6922
434 1 55.1498 25.811 -0.882332
435 1 55.5128 25.3216 -1.54441
436 1 55.4232 25.178 -2.4465
437 1 55.2713 25.6012 -3.2463
438 1 54.7623 26.3731 -3.67265
439 1 55.6663 26.4793 -3.8574
440 1 56.4801 26.7412 -3.60255
441 1 57.2245 26.9119 -3.05499
442 1 57.3516 27.5351 -2.36626
443 1 57.8624 27.4629 -1.61448
444 1 58.4441 26.9756 -1.05943
445 1 58.5406 26.2585 -0.511633
446 1 58.9822 25.6578 0.0860182
447 1 59.3526 25.0494 0.74871
448 1 59.0155 25.1042 1.6121
449 1 59.3863 24.7306 2.40844
450 1 59.5232 24.9733 3.33039
451 1 59.0721 25.4844 3.98187
452 1 58.3641 25.9603 4.48752
453 1 57.4426 26.1706 4.5706
454 1 56.9932 26.9225 4.19467
455 1 56.4859 27.6886 3.95261
456 1 56.5259 28.1435 3.17033
457 1 56.9441 28.7669 2.63953