ITEM: TIMESTEP
2370000
ITEM: NUMBER OF ATOMS
512
ITEM: BOX BOUNDS mm mm mm
-2.5600000000000000e+02 2.5600000000000000e+02
-2.5600000000000000e+02 2.5600000000000000e+02
-2.5600000000000000e+02 2.5600000000000000e+02
ITEM: ATOMS id type x y z
1 1 -93.274 -32.8815 -18.1272
2 1 -93.3857 -31.9771 -18.432
3 1 -93.4982 -31.1 -18.7162
4 1 -93.6217 -30.2257 -18.9884
5 1 -93.8661 -29.3547 -19.2719
6 1 -94.1333 -28.5483 -19.6621
7 1 -94.4241 -27.6711 -19.9247
8 1 -94.6322 -26.7188 -20.1032
9 1 -94.6981 -25.8186 -20.2517
10 1 -94.7781 -24.9677 -20.462
11 1 -94.7612 -24.0238 -20.7304
12 1 -94.8775 -23.1294 -20.9599
13 1 -95.037 -22.1365 -21.2147
14 1 -94.9699 -21.2025 -21.4265
15 1 -94.8422 -20.3037 -21.6677
16 1 -94.6316 -19.3559 -21.942
17 1 -94.4256 -18.4048 -22.2917
18 1 -94.4037 -17.5822 -22.6506
19 1 -94.4199 -16.7359 -23.0323
20 1 -94.4504 -15.8415 -23.3179
21 1 -94.3598 -14.9667 -23.6396
22 1 -94.3034 -14.0519 -23.9556
23 1 -94.1559 -13.1237 -24.1522
24 1 -93.9575 -12.2219 -24.2908
25 1 -93.7105 -11.3303 -24.4115
26 1 -93.3869 -10.4285 -24.6213
27 1 -93.0932 -9.45985 -24.7766
28 1 -92.8445 -8.5747 -24.8344
29 1 -92.5457 -7.61597 -24.9024
30 1 -92.2082 -6.78275 -24.9038
31 1 -91.8773 -5.92749 -24.9782
32 1 -91.4612 -5.0563 -25.1569
33 1 -90.9701 -4.22657 -25.2958
34 1 -90.4798 -3.47121 -25.4288
35 1 -89.9954 -2.70619 -25.6068
36 1 -89.4604 -1.95329 -25.6444
37 1 -89.0545 -1.14822 -25.5778
38 1 -88.524 -0.423504 -25.476
39 1 -87.8922 0.351011 -25.343
40 1 -87.3456 1.1341 -25.2521
41 1 -86.8041 1.93484 -25.1468
42 1 -86.2897 2.70982 -25.0438
43 1 -85.7799 3.49073 -25.0612
44 1 -85.1646 4.24875 -25.0202
45 1 -84.7128 5.04609 -24.8477
46 1 -84.2949 5.82635 -24.6044
47 1 -83.7565 6.49747 -24.2793
48 1 -83.1339 7.0912 -23.8245
49 1 -82.5971 7.75746 -23.4439
50 1 -82.1046 8.34702 -22.984
51 1 -81.5751 8.92884 -22.5255
52 1 -80.9618 9.55369 -22.0342
53 1 -80.4178 10.1833 -21.6947
54 1 -79.9108 10.8789 -21.3975
55 1 -79.2668 11.4814 -21.0699
56 1 -78.5622 12.1119 -20.7623
57 1 -77.9263 12.8001 -20.5157
58 1 -77.2934 13.4473 -20.438
59 1 -76.6197 14.1016 -20.3971
60 1 -76.0128 14.7493 -20.4579
61 1 -75.4144 15.4598 -20.571
62 1 -74.8745 16.2337 -20.7072
63 1 -74.2638 16.959 -20.7752
64 1 -73.7821 17.7544 -20.7585
65 1 -73.205 18.5241 -20.654
66 1 -72.6977 19.2353 -20.4707
67 1 -72.1548 19.9946 -20.1936
68 1 -71.5522 20.6699 -19.9679
69 1 -70.9152 21.3795 -19.8105
70 1 -70.3917 22.1224 -19.5479
71 1 -69.7907 22.7464 -19.195
72 1 -69.1654 23.3017 -18.7444
73 1 -68.4491 23.7021 -18.3497
74 1 -67.6935 24.1773 -17.8857
75 1 -66.999 24.5263 -17.3398
76 1 -66.2588 24.8445 -16.8089
77 1 -65.5045 24.9931 -16.2893
78 1 -64.7714 25.0756 -15.7522
79 1 -64.0498 25.3019 -15.1626
80 1 -63.4435 25.5593 -14.5297
81 1 -62.8478 25.8068 -13.8393
82 1 -62.3346 25.9533 -13.0267
83 1 -61.7767 26.1766 -12.3082
84 1 -61.2337 26.3752 -11.5997
85 1 -60.6495 26.6113 -10.9457
86 1 -60.0812 26.857 -10.2593
87 1 -59.634 27.0847 -9.47931
88 1 -59.1348 27.2962 -8.72485
89 1 -58.5883 27.3946 -7.98144
90 1 -58.0809 27.4161 -7.21041
91 1 -57.4661 27.553 -6.53449
92 1 -56.8048 27.6153 -5.91527
93 1 -55.992 27.7954 -5.41558
94 1 -55.2157 27.7935 -4.9077
95 1 -54.5145 27.7794 -4.3141
96 1 -53.7622 27.7086 -3.7087
97 1 -53.0459 27.4155 -3.15703
98 1 -52.3768 27.0985 -2.58089
99 1 -51.6449 26.8456 -2.1089
100 1 -50.9495 26.4805 -1.61538
101 1 -50.2194 26.2015 -1.11159
102 1 -49.4514 25.8386 -0.67705
103 1 -48.8084 25.4391 -0.158893
104 1 -48.196 24.9789 0.334174
105 1 -47.7042 24.359 0.824366
106 1 -47.2344 23.7755 1.33324
107 1 -46.6083 23.2468 1.8134
108 1 -46.0166 22.8015 2.36268
109 1 -45.337 22.419 2.90107
110 1 -44.6792 21.9634 3.44483
111 1 -44.0139 21.503 3.94602
112 1 -43.2869 21.0813 4.51209
113 1 -42.6492 20.6188 4.97822
114 1 -42.0151 20.0544 5.44145
115 1 -41.4725 19.4075 5.84937
116 1 -41.0452 18.6947 6.23614
117 1 -40.4698 18.0869 6.63856
118 1 -39.779 17.5357 7.01141
119 1 -39.0942 16.8929 7.26041
120 1 -38.3305 16.2461 7.31383
121 1 -37.6193 15.5727 7.39189
122 1 -36.9461 14.9483 7.45998
123 1 -36.2412 14.3235 7.45539
124 1 -35.4852 13.8553 7.4397
125 1 -34.6256 13.5019 7.3295
126 1 -33.7119 13.3439 7.15801
127 1 -32.7566 13.2217 6.93232
128 1 -31.8277 13.1905 6.65475
129 1 -30.9181 13.2548 6.37548
130 1 -30.066 13.4218 6.02202
131 1 -29.3207 13.6325 5.39219
132 1 -28.6464 13.7622 4.78064
133 1 -28.0278 13.984 4.11397
134 1 -27.4359 14.3309 3.49846
135 1 -26.7908 14.6352 2.87655
136 1 -26.1706 15.0249 2.30892
137 1 -25.5086 15.4078 1.79503
138 1 -24.9083 15.9064 1.31762
139 1 -24.2213 16.3749 0.852461
140 1 -23.5946 16.865 0.331133
141 1 -22.9149 17.3374 -0.0894957
142 1 -22.3477 17.9511 -0.516563
143 1 -21.8685 18.6709 -0.91087
144 1 -21.3375 19.283 -1.38931
145 1 -20.7865 19.8942 -1.85855
146 1 -20.3312 20.6601 -2.26439
147 1 -19.8256 21.4129 -2.57006
148 1 -19.2748 22.1481 -2.8096
149 1 -18.7128 22.8485 -3.01026
150 1 -18.0365 23.4781 -3.14721
151 1 -17.3661 24.1829 -3.15721
152 1 -16.606 24.7667 -3.05568
153 1 -15.8484 25.3098 -3.03007
154 1 -14.991 25.8365 -3.13098
155 1 -14.2325 26.3276 -3.0503
156 1 -13.538 26.9268 -2.89204
157 1 -12.8621 27.533 -2.5736
158 1 -12.2373 28.0446 -2.17694
159 1 -11.5768 28.3991 -1.62023
160 1 -10.9784 28.7549 -1.013
161 1 -10.4357 29.2342 -0.320769
162 1 -9.87664 29.562 0.362097
163 1 -9.40329 29.7988 1.1043
164 1 -9.02272 30.0053 1.97831
165 1 -8.65848 30.1151 2.8778
166 1 -8.3436 30.4066 3.77826
167 1 -8.08597 30.6214 4.65315
168 1 -7.83977 30.8106 5.56014
169 1 -7.50317 30.9728 6.4285
170 1 -7.13723 31.1124 7.2838
171 1 -6.85671 31.1588 8.21719
172 1 -6.62861 31.0292 9.13085
173 1 -6.4362 30.9406 10.0503
174 1 -6.26322 30.7719 10.9833
175 1 -5.90812 30.6332 11.8265
176 1 -5.48264 30.5293 12.6345
177 1 -5.06672 30.5226 13.5002
178 1 -4.67059 30.5565 14.3898
179 1 -4.47703 30.5194 15.3198
180 1 -4.27581 30.4764 16.1913
181 1 -4.21039 30.3513 17.1271
182 1 -4.13022 30.2142 18.0668
183 1 -4.04611 29.8914 18.9364
184 1 -3.85556 29.5351 19.766
185 1 -3.61084 29.1868 20.666
186 1 -3.46789 28.8475 21.5516
187 1 -3.26179 28.346 22.3444
188 1 -2.99375 27.8376 23.0762
189 1 -2.55233 27.395 23.8015
190 1 -2.00376 26.973 24.4685
191 1 -1.49842 26.4567 25.0571
192 1 -1.09411 25.9674 25.7124
193 1 -0.591159 25.4475 26.379
194 1 0.00498616 24.9889 26.9556
195 1 0.543703 24.4605 27.4909
196 1 1.03102 23.8153 28.0434
197 1 1.58644 23.2349 28.5061
198 1 2.03307 22.6094 28.9736
199 1 2.54528 21.9273 29.2817
200 1 3.00219 21.1282 29.5315
201 1 3.2621 20.2784 29.8315
202 1 3.62587 19.4488 30.1091
203 1 3.92061 18.5484 30.2055
204 1 4.09046 17.599 30.235
205 1 4.13843 16.6677 30.2603
206 1 4.09308 15.7503 30.0688
207 1 4.1223 14.8351 29.794
208 1 4.11724 13.9743 29.3868
209 1 4.01758 13.0886 29.0226
210 1 3.98505 12.2056 28.7097
211 1 4.0034 11.3345 28.3162
212 1 3.94768 10.4517 27.9752
213 1 3.78024 9.57879 27.5221
214 1 3.69786 8.76447 27.098
215 1 3.62453 7.95367 26.6296
216 1 3.6268 7.14102 26.1061
217 1 3.60391 6.43864 25.4437
218 1 3.48599 5.79243 24.7384
219 1 3.39648 5.10943 24.1086
220 1 3.3204 4.35139 23.4549
221 1 3.27251 3.59148 22.8123
222 1 2.99756 2.90191 22.1804
223 1 2.60081 2.27261 21.5956
224 1 2.22697 1.6573 20.9849
225 1 1.84552 1.06038 20.4154
226 1 1.48792 0.394338 19.7928
227 1 1.14613 -0.125472 19.0679
228 1 0.820372 -0.736348 18.3934
229 1 0.582148 -1.20902 17.648
230 1 0.136017 -1.49259 16.8718
231 1 -0.396723 -1.75065 16.1267
232 1 -0.96935 -2.03469 15.4895
233 1 -1.60457 -2.29484 14.8988
234 1 -2.26237 -2.5 14.2143
235 1 -2.85002 -2.55684 13.4814
236 1 -3.4895 -2.63922 12.7241
237 1 -4.07242 -2.63878 12.0809
238 1 -4.64049 -2.42136 11.3
239 1 -5.04587 -2.23568 10.4958
240 1 -5.35647 -1.94973 9.67604
241 1 -5.76107 -1.70861 8.79805
242 1 -6.07941 -1.53231 7.86032
243 1 -6.32167 -1.35636 7.02343
244 1 -6.63657 -1.06114 6.16661
245 1 -6.86788 -0.726156 5.29721
246 1 -6.85312 -0.569574 4.31973
247 1 -6.87539 -0.41182 3.37115
248 1 -6.95841 -0.21183 2.46069
249 1 -6.96262 -0.08178 1.54097
250 1 -6.88699 0.116941 0.629998
251 1 -6.75121 0.313389 -0.318067
252 1 -6.64567 0.499168 -1.23666
253 1 -6.52404 0.643395 -2.13422
254 1 -6.37545 1.03357 -2.95266
255 1 -6.14627 1.54134 -3.68388
256 1 -5.69767 1.86557 -4.43287
257 1 -5.21257 2.18414 -5.14051
258 1 -4.62124 2.43289 -5.84076
259 1 -3.99677 2.67001 -6.45891
260 1 -3.30319 2.96679 -7.00697
261 1 -2.63738 3.33408 -7.52122
262 1 -1.91446 3.76657 -7.88998
263 1 -1.13477 4.17471 -8.24065
264 1 -0.256041 4.47851 -8.53762
265 1 0.655089 4.60362 -8.85011
266 1 1.53811 4.6453 -9.20024
267 1 2.46729 4.52493 -9.41368
268 1 3.33256 4.3413 -9.609
269 1 4.30211 4.32416 -9.62099
270 1 5.2558 4.15826 -9.58731
271 1 6.16932 3.97752 -9.50485
272 1 7.11778 3.81737 -9.48218
273 1 8.01938 3.67448 -9.5089
274 1 8.96151 3.55396 -9.54773
275 1 9.89499 3.47039 -9.50466
276 1 10.8575 3.28563 -9.54441
277 1 11.7625 2.96803 -9.63164
278 1 12.6408 2.5696 -9.60789
279 1 13.4814 2.15352 -9.66316
280 1 14.3051 1.71035 -9.70112
281 1 15.1786 1.32555 -9.86533
282 1 16.0191 1.02844 -10.0024
283 1 16.8653 0.794758 -10.0976
284 1 17.7503 0.530391 -10.1206
285 1 18.6853 0.300531 -10.1298
286 1 19.6052 0.075372 -10.1609
287 1 20.5201 -0.268416 -10.1904
288 1 21.4092 -0.665825 -10.2215
289 1 22.213 -1.1336 -10.3816
290 1 22.9771 -1.60767 -10.4564
291 1 23.7888 -2.07123 -10.4975
292 1 24.6499 -2.49545 -10.3842
293 1 25.4542 -2.91213 -10.2402
294 1 26.2745 -3.30316 -10.142
295 1 27.1625 -3.58224 -10.116
296 1 28.0965 -3.81562 -10.0587
297 1 29.0404 -3.95266 -9.92688
298 1 29.9363 -4.21489 -9.81348
299 1 30.8491 -4.45339 -9.67567
300 1 31.777 -4.59261 -9.60042
301 1 32.7049 -4.68926 -9.45509
302 1 33.643 -4.86115 -9.51854
303 1 34.5353 -4.95741 -9.54707
304 1 35.4779 -5.26051 -9.53539
305 1 36.3554 -5.56865 -9.38819
306 1 37.2602 -5.75656 -9.18634
307 1 38.0676 -6.0591 -8.898
308 1 39.0141 -6.26986 -8.58832
309 1 39.8828 -6.49635 -8.22739
310 1 40.7093 -6.78514 -7.89417
311 1 41.6238 -7.01084 -7.65809
312 1 42.4844 -7.2466 -7.40638
313 1 43.328 -7.59044 -7.22142
314 1 44.1647 -7.98046 -7.08136
315 1 44.9644 -8.40297 -7.15626
316 1 45.7251 -8.92595 -7.20798
317 1 46.6043 -9.3087 -7.18332
318 1 47.4948 -9.73914 -7.01225
319 1 48.4141 -10.0933 -6.87303
320 1 49.307 -10.4337 -6.75716
321 1 50.1914 -10.7107 -6.56769
322 1 51.1205 -11.0005 -6.27506
323 1 52.0193 -11.2178 -5.92888
324 1 52.9007 -11.4119 -5.5614
325 1 53.7935 -11.4574 -5.2963
326 1 54.7061 -11.3489 -4.95711
327 1 55.5869 -11.2674 -4.68272
328 1 56.447 -11.2029 -4.31219
329 1 57.2798 -11.0448 -3.89957
330 1 58.1332 -10.8629 -3.52728
331 1 58.8961 -10.525 -3.05877
332 1 59.6141 -10.114 -2.69504
333 1 60.4108 -9.694 -2.39042
334 1 61.1546 -9.16481 -2.21875
335 1 61.8989 -8.64734 -2.01626
336 1 62.5304 -7.96355 -1.92111
337 1 63.1127 -7.29355 -1.97387
338 1 63.7481 -6.6387 -2.10648
339 1 64.2919 -5.87286 -2.23455
340 1 64.7804 -5.11692 -2.49853
341 1 65.1903 -4.26863 -2.78315
342 1 65.5597 -3.47168 -3.05908
343 1 66.0038 -2.63053 -3.37078
344 1 66.3142 -1.77651 -3.61885
345 1 66.5657 -0.969226 -3.97897
346 1 66.7261 -0.156083 -4.38013
347 1 66.8762 0.717459 -4.71952
348 1 66.976 1.60025 -5.09178
349 1 67.0874 2.47348 -5.57336
350 1 67.0601 3.2188 -6.18963
351 1 67.0747 3.89453 -6.80124
352 1 66.9701 4.69544 -7.32718
353 1 66.9113 5.4856 -7.83842
354 1 66.7987 6.26922 -8.39103
355 1 66.7365 6.94999 -9.02794
356 1 66.5878 7.70459 -9.50578
357 1 66.3266 8.44355 -9.97558
358 1 66.0455 9.09909 -10.4727
359 1 65.6927 9.90718 -10.8
360 1 65.3301 10.7111 -11.2028
361 1 64.8724 11.4482 -11.4978
362 1 64.4702 12.2495 -11.7236
363 1 64.0374 13.0816 -11.9895
364 1 63.6291 13.9368 -12.1323
365 1 63.2423 14.7742 -12.0777
366 1 62.8583 15.6179 -11.9803
367 1 62.4896 16.4735 -11.926
368 1 62.0992 17.3953 -11.9604
369 1 61.6537 18.234 -11.9809
370 1 61.4138 19.1318 -11.96
371 1 61.1301 20.023 -12.0199
372 1 60.8992 20.9047 -12.1473
373 1 60.5652 21.798 -12.3774
374 1 60.1776 22.5966 -12.6886
375 1 59.7276 23.3619 -13.0387
376 1 59.3276 24.1799 -13.3362
377 1 58.9375 24.9351 -13.7466
378 1 58.5465 25.7543 -14.1311
379 1 58.0812 26.5425 -14.3404
380 1 57.5619 27.3368 -14.3768
381 1 57.0731 28.1723 -14.2719
382 1 56.6442 29.0344 -14.1317
383 1 56.2901 29.8436 -13.8861
384 1 55.9198 30.7015 -13.6374
385 1 55.6248 31.5451 -13.3903
386 1 55.3798 32.4013 -13.2162
387 1 55.2074 33.2842 -13.0812
388 1 55.0836 34.1069 -12.6731
389 1 54.8757 34.9921 -12.3541
390 1 54.6897 35.7905 -12.0221
391 1 54.4634 36.5229 -11.4534
392 1 54.3374 37.326 -10.9714
393 1 54.3294 38.1209 -10.4025
394 1 54.4655 38.8415 -9.84645
395 1 54.6584 39.561 -9.17859
396 1 54.9256 40.164 -8.57744
397 1 55.2713 40.7658 -7.90474
398 1 55.7336 41.3172 -7.26921
399 1 56.0211 41.8941 -6.55766
400 1 56.3416 42.3151 -5.68587
401 1 56.6813 42.6116 -4.87022
402 1 56.91 42.9411 -3.96703
403 1 57.2123 43.2361 -3.11397
404 1 57.5906 43.4505 -2.27316
405 1 58.0357 43.7225 -1.4903
406 1 58.5281 43.8332 -0.722665
407 1 59.1135 44.0169 -0.00773288
408 1 59.7528 44.1752 0.628193
409 1 60.4771 44.3833 1.18719
410 1 61.3216 44.6151 1.59037
411 1 62.1338 44.6971 2.11802
412 1 62.9428 44.7549 2.56127
413 1 63.8028 44.76 2.94981
414 1 64.7466 44.6699 3.30488
415 1 65.6055 44.6437 3.70552
416 1 66.4872 44.6514 4.16167
417 1 67.3751 44.6212 4.37582
418 1 68.3166 44.528 4.44939
419 1 69.2318 44.3913 4.46475
420 1 70.1604 44.2206 4.51523
421 1 71.0873 44.0154 4.41692
422 1 71.9697 43.8906 4.43411
423 1 72.9156 43.8894 4.43153
424 1 73.8238 43.9259 4.44814
425 1 74.7497 43.8835 4.50114
426 1 75.688 43.8062 4.57872
427 1 76.6491 43.7089 4.66719
428 1 77.5998 43.715 4.71426
429 1 78.5783 43.6198 4.74728
430 1 79.5886 43.5681 4.76183
431 1 80.5043 43.4618 4.70273
432 1 81.3823 43.2968 4.5785
433 1 82.3376 43.0862 4.5453
434 1 83.236 42.8252 4.33615
435 1 84.0551 42.5268 4.0767
436 1 84.8709 42.1608 3.7387
437 1 85.5632 41.5466 3.40704
438 1 86.183 40.9214 2.99485
439 1 86.6673 40.317 2.51029
440 1 87.1866 39.6101 2.01452
441 1 87.5943 38.8665 1.63892
442 1 87.9049 38.067 1.2861
443 1 88.225 37.292 0.881879
444 1 88.5537 36.4811 0.528614
445 1 88.8606 35.76 0.0210496
446 1 89.1192 34.9746 -0.424693
447 1 89.2646 34.2268 -1.02207
448 1 89.3478 33.5074 -1.60405
449 1 89.3616 32.8583 -2.24817
450 1 89.3317 32.1918 -2.89639
451 1 89.1644 31.5332 -3.50862
452 1 89.0632 30.8454 -4.11827
453 1 88.8106 30.0888 -4.65335
454 1 88.4395 29.2878 -5.06831
455 1 88.0666 28.5343 -5.49329
456 1 87.6238 27.7892 -5.81781
457 1 87.0888 27.0804 -6.14067
458 1 86.5163 26.4342 -6.55362
459 1 85.8565 25.9449 -6.97538
460 1 85.1818 25.447 -7.38384
461 1 84.523 24.9053 -7.78978
462 1 83.8824 24.4093 -8.23967
463 1 83.2422 23.8679 -8.63562
464 1 82.5955 23.3352 -9.00019
465 1 81.8789 22.9165 -9.47895
466 1 81.1654 22.5991 -10.0712
467 1 80.5543 22.3071 -10.7943
468 1 80.0131 22.0043 -11.4703
469 1 79.4951 21.6016 -12.1805
470 1 79.0061 21.2482 -12.8896
471 1 78.3325 20.9898 -13.5206
472 1 77.6135 20.7119 -14.0843
473 1 76.8611 20.5061 -14.6616
474 1 76.2405 20.2469 -15.3827
475 1 75.6418 20.0607 -16.0724
476 1 75.011 19.8901 -16.7741
477 1 74.3751 19.7929 -17.4055
478 1 73.702 19.8961 -18.0578
479 1 73.1235 19.9567 -18.7776
480 1 72.5111 19.9839 -19.5371
481 1 71.9337 20.048 -20.3183
482 1 71.3814 20.1857 -21.1237
483 1 70.8928 20.3895 -22.0075
484 1 70.4734 20.6121 -22.8505
485 1 70.0307 20.7368 -23.6962
486 1 69.7582 20.7708 -24.5894
487 1 69.4579 20.8686 -25.4864
488 1 69.13 20.9686 -26.3137
489 1 68.854 21.1912 -27.1757
490 1 68.6001 21.5068 -28.0896
491 1 68.2885 21.7875 -28.9077
492 1 67.8198 21.9888 -29.747
493 1 67.3484 22.0843 -30.5229
494 1 66.906 22.1839 -31.3325
495 1 66.5125 22.4572 -32.0898
496 1 66.0425 22.8718 -32.8405
497 1 65.7194 23.2776 -33.6132
498 1 65.4904 23.763 -34.3585
499 1 65.371 24.2808 -35.129
500 1 65.2668 24.8223 -35.8977
501 1 65.0766 25.385 -36.606
502 1 64.6418 25.9176 -37.3564
503 1 64.3312 26.3868 -38.1462
504 1 63.997 26.8011 -38.9572
505 1 63.665 27.2052 -39.7791
506 1 63.3197 27.5835 -40.5698
507 1 62.9938 27.9774 -41.3968
508 1 62.8328 28.3235 -42.2189
509 1 62.793 28.6703 -43.1334
510 1 62.8437 28.9091 -44.0281
511 1 62.8469 29.1543 -44.92
512 1 62.9015 29.3351 -45.8301
ITEM: TIMESTEP
2380000
ITEM: NUMBER OF ATOMS
512
ITEM: BOX BOUNDS mm mm mm
-2.5600000000000000e+02 2.5600000000000000e+02
-2.5600000000000000e+02 2.5600000000000000e+02
-2.5600000000000000e+02 2.5600000000000000e+02
ITEM: ATOMS id type x y z
1 1 -91.5762 -32.3293 -27.2661
2 1 -91.8912 -31.4817 -26.9868
3 1 -92.1344 -30.5657 -26.8109
4 1 -92.2661 -29.676 -26.6559
5 1 -92.3021 -28.7348 -26.5115
6 1 -92.3882 -27.8281 -26.4386
7 1 -92.5364 -26.8665 -26.3913
8 1 -92.6723 -25.874 -26.3703
9 1 -92.8189 -24.9706 -26.4555
10 1 -92.8629 -24.0891 -26.4058
11 1 -92.961 -23.1941 -26.3317
12 1 -93.0427 -22.2726 -26.2597
13 1 -92.9491 -21.322 -26.1981
14 1 -92.8583 -20.3723 -26.2824
15 1 -92.8318 -19.4407 -26.4143
16 1 -92.7719 -18.4787 -26.4715
17 1 -92.6678 -17.5821 -26.5587
18 1 -92.537 -16.6674 -26.471
19 1 -92.2884 -15.7877 -26.3683
20 1 -91.9509 -14.9555 -26.1399
21 1 -91.5565 -14.1151 -25.9287
22 1 -91.1622 -13.273 -25.7918
23 1 -90.7311 -12.3893 -25.6055
24 1 -90.3531 -11.4829 -25.4182
25 1 -90.015 -10.5849 -25.2847
26 1 -89.6656 -9.7437 -25.1202
27 1 -89.4187 -8.92506 -24.8157
28 1 -89.1703 -8.07344 -24.4368
29 1 -89.0008 -7.20117 -24.0159
30 1 -88.9433 -6.30052 -23.6956
31 1 -88.9144 -5.44663 -23.437
32 1 -88.9543 -4.51127 -23.1683
33 1 -89.1028 -3.61218 -22.9862
34 1 -89.105 -2.69091 -22.8066
35 1 -89.1203 -1.78521 -22.7598
36 1 -88.9159 -0.856807 -22.7859
37 1 -88.7225 0.0373772 -22.8258
38 1 -88.4339 0.93287 -22.82
39 1 -88.0129 1.72405 -22.8155
40 1 -87.5453 2.53575 -22.9221
41 1 -87.1206 3.36353 -22.913
42 1 -86.781 4.21704 -23.0403
43 1 -86.398 5.03842 -23.0654
44 1 -85.8859 5.88783 -22.9614
45 1 -85.3226 6.6442 -22.8949
46 1 -84.7833 7.41765 -22.8409
47 1 -84.2717 8.18497 -22.7367
48 1 -83.6392 8.88736 -22.7627
49 1 -82.9507 9.52246 -22.7184
50 1 -82.3238 10.1767 -22.5827
51 1 -81.6078 10.7724 -22.4979
52 1 -80.8248 11.3896 -22.4393
53 1 -80.0233 11.9255 -22.411
54 1 -79.2738 12.4552 -22.3994
55 1 -78.4968 13.0125 -22.3298
56 1 -77.705 13.6075 -22.1757
57 1 -77.0725 14.2259 -21.9631
58 1 -76.4554 14.872 -21.8455
59 1 -75.6758 15.3692 -21.6586
60 1 -74.8528 15.765 -21.3802
61 1 -74.0541 16.2131 -21.2325
62 1 -73.362 16.7494 -21.0266
63 1 -72.7073 17.5216 -20.9216
64 1 -72.1921 18.2657 -20.8693
65 1 -71.6692 19.0411 -20.7857
66 1 -71.286 19.8912 -20.5401
67 1 -70.8939 20.7124 -20.2461
68 1 -70.488 21.4801 -19.8835
69 1 -70.197 22.2823 -19.4788
70 1 -69.6502 22.9911 -19.1117
71 1 -69.1305 23.6228 -18.6867
72 1 -68.5348 24.1892 -18.2191
73 1 -68.0326 24.7924 -17.8059
74 1 -67.6173 25.5156 -17.4031
75 1 -67.0856 26.0866 -16.9065
76 1 -66.6024 26.586 -16.2471
77 1 -66.1393 27.0026 -15.5303
78 1 -65.6287 27.3298 -14.7524
79 1 -65.0313 27.7403 -14.0811
80 1 -64.5222 28.1117 -13.3948
81 1 -63.9912 28.5066 -12.7239
82 1 -63.3737 28.7888 -12.1084
83 1 -62.7302 29.0614 -11.4779
84 1 -61.9566 29.339 -11.026
85 1 -61.1044 29.438 -10.5982
86 1 -60.2191 29.3173 -10.1909
87 1 -59.4144 29.1734 -9.78216
88 1 -58.5205 29.0562 -9.34502
89 1 -57.7122 28.8079 -8.84882
90 1 -56.9199 28.6509 -8.43025
91 1 -56.1944 28.4401 -7.85174
92 1 -55.3926 28.2061 -7.37611
93 1 -54.6544 27.98 -6.80373
94 1 -54.0278 27.7934 -6.17423
95 1 -53.3935 27.6335 -5.5028
96 1 -52.672 27.4333 -4.93497
97 1 -52.0212 27.2432 -4.32388
98 1 -51.4609 27.0043 -3.6637
99 1 -50.8314 26.7519 -2.94799
100 1 -50.1818 26.436 -2.36103
101 1 -49.5424 26.207 -1.598
102 1 -48.8855 25.9517 -0.860336
103 1 -48.2721 25.7095 -0.179429
104 1 -47.5828 25.4206 0.460858
105 1 -46.8435 25.0834 0.975251
106 1 -46.0968 24.7917 1.3414
107 1 -45.3629 24.3538 1.7243
108 1 -44.6593 23.7629 1.97254
109 1 -44.0146 23.1244 2.12943
110 1 -43.2874 22.4448 2.1886
111 1 -42.5579 21.8147 2.19126
112 1 -41.8138 21.1785 2.10162
113 1 -41.1036 20.6132 1.93916
114 1 -40.311 20.1374 1.82949
115 1 -39.4569 19.6931 1.87635
116 1 -38.6041 19.2702 1.98794
117 1 -37.8343 18.7879 2.1633
118 1 -37.0789 18.269 2.27037
119 1 -36.3591 17.7002 2.2045
120 1 -35.6191 17.1669 2.17316
121 1 -34.9283 16.5576 2.08943
122 1 -34.0659 16.1008 2.03955
123 1 -33.2686 15.6402 1.94453
124 1 -32.4128 15.3099 1.88641
125 1 -31.5082 15.0124 1.8596
126 1 -30.6279 14.5991 1.87622
127 1 -29.7603 14.162 1.83673
128 1 -28.8423 13.8642 1.69986
129 1 -27.9338 13.5811 1.48432
130 1 -27.0342 13.4754 1.13842
131 1 -26.1447 13.4819 0.885089
132 1 -25.2605 13.4443 0.578042
133 1 -24.3407 13.3929 0.243509
134 1 -23.4516 13.2811 -0.199189
135 1 -22.6843 13.2807 -0.762015
136 1 -21.8694 13.2522 -1.21827
137 1 -20.9989 13.3746 -1.59755
138 1 -20.1807 13.6826 -1.9006
139 1 -19.3931 14.0851 -2.28463
140 1 -18.6116 14.5481 -2.6992
141 1 -17.9481 15.0084 -3.08626
142 1 -17.2926 15.6765 -3.35021
143 1 -16.7446 16.417 -3.64918
144 1 -16.3047 17.1668 -4.08997
145 1 -15.9767 18.0043 -4.37662
146 1 -15.8075 18.8797 -4.65329
147 1 -15.7093 19.7976 -5.01549
148 1 -15.6467 20.6914 -5.28596
149 1 -15.6787 21.5768 -5.48533
150 1 -15.6382 22.4616 -5.5492
151 1 -15.6519 23.4448 -5.54912
152 1 -15.6156 24.3604 -5.55048
153 1 -15.4351 25.3136 -5.46121
154 1 -14.9587 26.1495 -5.29771
155 1 -14.507 26.8904 -4.98842
156 1 -14.0446 27.5137 -4.56562
157 1 -13.5416 28.0504 -3.97087
158 1 -13.0749 28.5032 -3.32274
159 1 -12.563 28.9253 -2.6782
160 1 -12.0937 29.2921 -1.94406
161 1 -11.7246 29.7075 -1.21078
162 1 -11.4329 30.1789 -0.450175
163 1 -11.1188 30.6642 0.298043
164 1 -10.8419 31.1443 1.0473
165 1 -10.4053 31.6679 1.74923
166 1 -9.95726 32.1704 2.44294
167 1 -9.48733 32.5621 3.09812
168 1 -9.01165 32.872 3.86673
169 1 -8.62724 33.1405 4.66312
170 1 -8.19003 33.158 5.46089
171 1 -7.67006 33.2873 6.20628
172 1 -7.05311 33.3928 7.04275
173 1 -6.50857 33.3842 7.81507
174 1 -5.95281 33.2602 8.56015
175 1 -5.42468 33.0643 9.30932
176 1 -5.01229 32.837 10.1967
177 1 -4.70783 32.5674 11.0519
178 1 -4.38745 32.2296 11.878
179 1 -4.03575 32.0146 12.6772
180 1 -3.6327 31.7644 13.5395
181 1 -3.44405 31.4819 14.3989
182 1 -3.24934 31.0794 15.2054
183 1 -3.10727 30.8143 16.1499
184 1 -2.89004 30.6285 17.0461
185 1 -2.73205 30.2808 17.9366
186 1 -2.47365 29.8266 18.7436
187 1 -2.16735 29.3288 19.5143
188 1 -1.92479 29.012 20.3621
189 1 -1.67838 28.6657 21.214
190 1 -1.39991 28.2974 22.0492
191 1 -1.15495 27.8348 22.8503
192 1 -0.944583 27.2497 23.5963
193 1 -0.899222 26.6589 24.309
194 1 -0.897297 26.012 25.0747
195 1 -0.917462 25.4118 25.8117
196 1 -0.894609 24.7531 26.4315
197 1 -0.842596 24.0985 27.0496
198 1 -0.906277 23.3677 27.6102
199 1 -0.895426 22.5643 28.0794
200 1 -0.976677 21.7285 28.5214
201 1 -1.06104 20.8587 28.966
202 1 -1.16782 20.0279 29.4074
203 1 -1.12088 19.1928 29.9072
204 1 -0.995908 18.3924 30.4157
205 1 -1.07082 17.4841 30.8581
206 1 -1.23708 16.6012 31.2066
207 1 -1.22892 15.7267 31.4323
208 1 -1.09361 14.7517 31.5313
209 1 -0.927952 13.7803 31.5718
210 1 -0.706232 12.8352 31.5923
211 1 -0.516364 11.8905 31.5568
212 1 -0.242348 11.0085 31.4637
213 1 0.0209425 10.1456 31.3457
214 1 0.045132 9.19621 31.1771
215 1 0.142825 8.35563 30.8669
216 1 0.233933 7.50852 30.3756
217 1 0.241905 6.72348 29.8569
218 1 0.364774 5.97314 29.3091
219 1 0.33107 5.2994 28.7018
220 1 0.281402 4.60521 28.0728
221 1 0.206544 3.94309 27.4227
222 1 0.221361 3.31581 26.7542
223 1 0.222058 2.77124 25.9561
224 1 0.217889 2.25532 25.1728
225 1 0.147722 1.92188 24.3276
226 1 0.109237 1.52894 23.493
227 1 0.0319644 0.964234 22.7442
228 1 -0.12688 0.384054 21.9768
229 1 -0.29081 -0.208941 21.1693
230 1 -0.542581 -0.617885 20.3748
231 1 -0.89296 -0.986694 19.5709
232 1 -1.28786 -1.34029 18.8002
233 1 -1.64746 -1.75189 17.9944
234 1 -2.00207 -2.15969 17.2294
235 1 -2.35846 -2.71674 16.5255
236 1 -2.69594 -3.12354 15.7922
237 1 -3.01935 -3.62324 15.057
238 1 -3.29266 -4.18276 14.3447
239 1 -3.55082 -4.69794 13.479
240 1 -3.78167 -5.16376 12.7276
241 1 -3.97154 -5.49606 11.8638
242 1 -4.21304 -5.7178 10.9637
243 1 -4.40808 -5.75103 10.0505
244 1 -4.79362 -5.84875 9.15828
245 1 -5.15969 -5.9753 8.33237
246 1 -5.52682 -5.94445 7.46731
247 1 -5.8184 -5.84521 6.59347
248 1 -6.11503 -5.56274 5.73563
249 1 -6.41467 -5.09102 4.95488
250 1 -6.65493 -4.57906 4.22053
251 1 -6.68516 -4.00071 3.47165
252 1 -6.52748 -3.43138 2.73185
253 1 -6.19437 -2.85541 2.09478
254 1 -5.81676 -2.33406 1.45615
255 1 -5.25975 -1.94844 0.755211
256 1 -4.64951 -1.5941 0.106452
257 1 -4.12126 -1.2293 -0.633491
258 1 -3.60883 -0.822047 -1.32399
259 1 -3.09083 -0.430107 -2.00106
260 1 -2.45716 -0.0402309 -2.66901
261 1 -1.85417 0.220126 -3.3208
262 1 -1.22561 0.446867 -3.98815
263 1 -0.52105 0.764253 -4.54449
264 1 0.210217 1.10431 -4.97495
265 1 0.892738 1.5133 -5.45827
266 1 1.68569 1.86471 -5.78731
267 1 2.51992 2.09954 -6.21622
268 1 3.36195 2.25477 -6.56346
269 1 4.24292 2.36664 -6.91749
270 1 5.13652 2.41004 -7.23075
271 1 6.0456 2.53046 -7.39868
272 1 6.93191 2.54939 -7.60914
273 1 7.94697 2.53757 -7.79402
274 1 8.87928 2.58938 -7.75313
275 1 9.86114 2.61009 -7.71349
276 1 10.801 2.56762 -7.63583
277 1 11.7084 2.52742 -7.56619
278 1 12.6133 2.32994 -7.52075
279 1 13.5617 2.17827 -7.41848
280 1 14.5587 2.03691 -7.39359
281 1 15.5127 1.73875 -7.36445
282 1 16.3728 1.36447 -7.45249
283 1 17.308 1.00134 -7.53956
284 1 18.2117 0.784682 -7.61186
285 1 19.1209 0.549349 -7.75881
286 1 20.0594 0.283781 -7.96166
287 1 20.9988 0.107496 -8.07624
288 1 21.8894 -0.21379 -8.11867
289 1 22.6701 -0.686298 -8.13249
290 1 23.494 -1.16668 -8.11163
291 1 24.2417 -1.71323 -8.08266
292 1 25.0208 -2.22619 -7.972
293 1 25.835 -2.74006 -7.81828
294 1 26.6585 -3.18603 -7.54454
295 1 27.5014 -3.6447 -7.241
296 1 28.3185 -4.0378 -6.9921
297 1 29.1017 -4.32764 -6.75134
298 1 29.8874 -4.83554 -6.43691
299 1 30.5987 -5.35478 -6.1479
300 1 31.2599 -5.86857 -5.81036
301 1 32.0134 -6.51788 -5.61822
302 1 32.725 -7.09857 -5.53863
303 1 33.5147 -7.5657 -5.43421
304 1 34.2294 -8.14913 -5.20106
305 1 34.9531 -8.73087 -4.92313
306 1 35.7732 -9.32721 -4.70628
307 1 36.5183 -9.87033 -4.48845
308 1 37.272 -10.453 -4.28439
309 1 37.9545 -11.0533 -4.19576
310 1 38.7031 -11.7182 -4.2152
311 1 39.5178 -12.2614 -4.1701
312 1 40.2399 -12.7761 -4.2183
313 1 41.0605 -13.239 -4.30198
314 1 41.9051 -13.7207 -4.28686
315 1 42.6256 -14.2618 -4.27506
316 1 43.3375 -14.8327 -4.2364
317 1 44.1541 -15.2973 -4.16187
318 1 44.9672 -15.7274 -4.08052
319 1 45.8301 -15.9722 -4.06161
320 1 46.755 -16.2496 -4.06541
321 1 47.6996 -16.26 -4.01541
322 1 48.6635 -16.2217 -3.90142
323 1 49.695 -16.2433 -3.85629
324 1 50.6185 -16.0768 -3.79262
325 1 51.5447 -15.8819 -3.69167
326 1 52.428 -15.6535 -3.53691
327 1 53.3346 -15.3077 -3.37452
328 1 54.1775 -14.8736 -3.18448
329 1 55.0049 -14.4705 -3.07395
330 1 55.8835 -14.0945 -3.03464
331 1 56.7349 -13.7103 -2.98767
332 1 57.6101 -13.2837 -2.92997
333 1 58.4688 -12.803 -2.90703
334 1 59.2219 -12.2419 -2.8219
335 1 59.9391 -11.6394 -2.81356
336 1 60.6144 -10.9797 -2.87588
337 1 61.1843 -10.2426 -3.0099
338 1 61.7055 -9.44743 -3.21858
339 1 62.2119 -8.66851 -3.38124
340 1 62.6559 -7.83904 -3.70848
341 1 63.0482 -7.05145 -4.10255
342 1 63.3817 -6.2193 -4.44207
343 1 63.8073 -5.4211 -4.65803
344 1 64.1142 -4.57858 -4.97807
345 1 64.2475 -3.72136 -5.27664
346 1 64.2026 -2.83214 -5.53452
347 1 64.1473 -1.94397 -5.89739
348 1 64.0549 -1.02101 -6.20213
349 1 63.9583 -0.178354 -6.65368
350 1 64.0443 0.625292 -7.15009
351 1 64.0969 1.4332 -7.58854
352 1 64.1667 2.27579 -8.09948
353 1 64.0819 3.13619 -8.527
354 1 63.9208 3.95273 -8.93961
355 1 63.6832 4.79951 -9.2615
356 1 63.5531 5.7014 -9.56563
357 1 63.48 6.58958 -9.90706
358 1 63.4349 7.46361 -10.2042
359 1 63.3413 8.34741 -10.5116
360 1 63.2631 9.25414 -10.6915
361 1 63.1571 10.1685 -10.9179
362 1 63.1018 11.1154 -11.0624
363 1 63.0078 12.058 -11.1607
364 1 62.8406 12.9881 -11.2917
365 1 62.6279 13.8803 -11.4839
366 1 62.389 14.7533 -11.5343
367 1 62.1131 15.6837 -11.6895
368 1 61.8528 16.5272 -11.9683
369 1 61.5906 17.3999 -12.2441
370 1 61.3251 18.2518 -12.4939
371 1 61.0336 19.1145 -12.5529
372 1 60.6592 19.9505 -12.6721
373 1 60.1914 20.7749 -12.7103
374 1 59.8761 21.6539 -12.7537
375 1 59.4936 22.4437 -12.5776
376 1 59.1037 23.3071 -12.4405
377 1 58.7769 24.2128 -12.3463
378 1 58.4227 25.094 -12.3238
379 1 58.0537 26.004 -12.242
380 1 57.6747 26.81 -12.0335
381 1 57.3633 27.5854 -11.6408
382 1 57.2167 28.3718 -11.1456
383 1 57.0721 29.0868 -10.5978
384 1 56.8288 29.831 -10.0182
385 1 56.7698 30.4313 -9.32585
386 1 56.6074 31.0396 -8.65972
387 1 56.5359 31.6912 -7.97227
388 1 56.3517 32.3683 -7.36593
389 1 56.2537 33.0928 -6.74962
390 1 56.1708 33.8549 -6.21431
391 1 56.2115 34.6135 -5.65601
392 1 56.2441 35.4067 -5.18038
393 1 56.2354 36.2511 -4.62199
394 1 56.3567 37.0427 -4.16288
395 1 56.5043 37.855 -3.81007
396 1 56.5982 38.8172 -3.45944
397 1 56.7077 39.5962 -3.01947
398 1 56.8421 40.4564 -2.58992
399 1 56.962 41.2696 -2.19001
400 1 57.0737 42.1446 -1.79081
401 1 57.1979 42.9492 -1.43007
402 1 57.4241 43.6376 -0.882288
403 1 57.7449 44.3699 -0.292071
404 1 58.2131 45.118 0.0864897
405 1 58.7282 45.8465 0.329008
406 1 59.367 46.5296 0.6883
407 1 59.9557 47.0846 1.0214
408 1 60.6768 47.5199 1.45754
409 1 61.4188 47.8627 1.85504
410 1 62.2052 48.0939 2.33138
411 1 62.9178 48.3808 2.88076
412 1 63.6879 48.5064 3.35993
413 1 64.5666 48.5936 3.71399
414 1 65.4151 48.5379 4.11696
415 1 66.324 48.6169 4.42827
416 1 67.2514 48.6251 4.54312
417 1 68.2628 48.7154 4.70134
418 1 69.1597 48.9893 4.85246
419 1 70.0982 49.1321 4.98156
420 1 70.9758 49.1497 5.06932
421 1 71.951 49.1571 5.27867
422 1 72.9261 49.1657 5.45833
423 1 73.8297 48.9421 5.53442
424 1 74.7896 48.7343 5.59696
425 1 75.6662 48.459 5.53534
426 1 76.6001 48.0586 5.3513
427 1 77.3729 47.6488 5.07819
428 1 78.1634 47.2502 4.71669
429 1 78.8686 46.7361 4.39889
430 1 79.5614 46.2199 4.12657
431 1 80.2973 45.6507 3.91662
432 1 80.9929 45.0691 3.61324
433 1 81.6672 44.4685 3.30781
434 1 82.3303 43.8322 2.99882
435 1 82.9421 43.2266 2.64381
436 1 83.43 42.5249 2.22039
437 1 83.8963 41.8099 1.8499
438 1 84.2297 41.0464 1.46913
439 1 84.5516 40.275 1.09739