print ">>>>>>>>>>>>>>>>>>>>>>>>>>>>>>>>>>>>>>>>>>>>>>>>>>>>>>>>>>>>>>>>>>>>>>>>>>>>>>>N: 512 K: 0.5"
>>>>>>>>>>>>>>>>>>>>>>>>>>>>>>>>>>>>>>>>>>>>>>>>>>>>>>>>>>>>>>>>>>>>>>>>>>>>>>>N: 512 K: 0.5
read_restart restart._N512_k0.5.dat
Reading restart file ...
  restart file = 23 Jun 2022, LAMMPS = 23 Jun 2022
  restoring atom style angle from restart
  orthogonal box = (-256 -256 -256) to (256 256 256)
  1 by 2 by 2 MPI processor grid
  restoring pair style lj/cut from restart
  restoring bond style fene from restart
  restoring angle style cosine from restart
  512 atoms
  511 bonds
  510 angles
Finding 1-2 1-3 1-4 neighbors ...
  special bond factors lj:    0        1        1       
  special bond factors coul:  0        1        1       
     2 = max # of 1-2 neighbors
     6 = max # of special neighbors
  special bonds CPU = 0.000 seconds
  read_restart CPU = 0.002 seconds
# sets up computes needed for continuing a run from a restart file

# dumps and fixes, dumps are already handled in the python file



###

# Set up fixes - as these are not stored in the restart files

###

variable seed equal 315987     # a seed for the thermostat

fix 1 all nve                             # NVE integrator

fix 2 all langevin   1.0 1.0 1.0 ${seed}  # langevin thermostat

fix 2 all langevin   1.0 1.0 1.0 315987  


##### Calculate thermodynamics to write ###################################

variable t equal step

variable mytemp equal temp

variable myepair equal epair

############################################################################



############################################################################

#### Set up a compute for R_g

compute myRG2compute all gyration

#### and write it to a file

variable RG2 equal c_myRG2compute

############################################################################



##### Output thermodynamic info  (temperature, energy, pressure, etc.) #####

thermo 10000

thermo_style   custom   step  temp  epair  emol pe ke etotal  press  vol

############################################################################



###

# modify neighborlist behaviour since this too is not recorded

###

neighbor 1.9 bin

neigh_modify every 1 delay 1 check yes

fix mythermofile all print 10000 "$t ${mytemp} ${myepair}" file thermo_output_N512_k0.5.dat screen no
fix myRG2file all print 10000 "$t ${RG2}" file radius_of_gyration_squared_N512_k0.5.dat screen no
dump dum2 all custom 10000 dump_N512_k0.5.dynamics id type x y z
dump_modify dum2  sort id
run 500000
Generated 0 of 0 mixed pair_coeff terms from geometric mixing rule
Neighbor list info ...
  update every 1 steps, delay 1 steps, check yes
  max neighbors/atom: 2000, page size: 100000
  master list distance cutoff = 3.0224615
  ghost atom cutoff = 3.55
  binsize = 1.5112308, bins = 339 339 339
  1 neighbor lists, perpetual/occasional/extra = 1 0 0
  (1) pair lj/cut, perpetual
      attributes: half, newton on
      pair build: half/bin/newton
      stencil: half/bin/3d
      bin: standard
Per MPI rank memory allocation (min/avg/max) = 47.82 | 47.9 | 48.11 Mbytes
   Step          Temp          E_pair         E_mol          PotEng         KinEng         TotEng         Press          Volume    
   1040000   0.99370597     0.027088381    31.521625      31.548713      1.4876477      33.036361      2.5773088e-06  1.3421773e+08
   1050000   0.93573816     0.0087880838   31.492312      31.501101      1.4008658      32.901966     -1.4730539e-07  1.3421773e+08
   1060000   1.0423584      0.00927513     31.500208      31.509483      1.5604839      33.069967      1.8504476e-07  1.3421773e+08
   1070000   0.97108031     0.016630648    31.492924      31.509554      1.4537755      32.96333      -8.7339256e-07  1.3421773e+08
   1080000   0.98928721     0.0091207086   31.463529      31.47265       1.4810325      32.953682     -2.6862878e-06  1.3421773e+08
   1090000   0.99784288     0.02955386     31.488257      31.51781       1.4938409      33.011651     -2.4139971e-06  1.3421773e+08
   1100000   1.0056913      0.015060926    31.413736      31.428796      1.5055906      32.934387     -6.1262374e-07  1.3421773e+08
   1110000   1.0106516      0.017851246    31.481976      31.499828      1.5130166      33.012844     -1.7929359e-06  1.3421773e+08
   1120000   0.94576185     0.015814653    31.514826      31.530641      1.415872       32.946513     -2.3370713e-06  1.3421773e+08
   1130000   1.0026303      0.014192134    31.437211      31.451403      1.5010081      32.952411      5.9775265e-07  1.3421773e+08
   1140000   1.0152618      0.016513413    31.484662      31.501175      1.5199183      33.021093      1.7752545e-06  1.3421773e+08
   1150000   0.9915319      0.010402824    31.437523      31.447926      1.484393       32.932319     -1.3920502e-06  1.3421773e+08
   1160000   1.0304799      0.007363923    31.461588      31.468952      1.5427008      33.011652     -2.4286252e-06  1.3421773e+08
   1170000   0.95572829     0.021232552    31.479978      31.50121       1.4307924      32.932003      1.6122806e-06  1.3421773e+08
   1180000   0.96578197     0.016409521    31.453208      31.469618      1.4458435      32.915461     -3.5212295e-06  1.3421773e+08
   1190000   0.97506366     0.022752628    31.5583        31.581053      1.4597389      33.040792      1.1532329e-06  1.3421773e+08
   1200000   0.99970771     0.013963348    31.511217      31.525181      1.4966327      33.021814     -2.6753472e-07  1.3421773e+08
   1210000   0.99790703     0.026161679    31.551526      31.577688      1.493937       33.071625      1.2866399e-06  1.3421773e+08
   1220000   1.0050883      0.015892622    31.447621      31.463514      1.5046878      32.968202     -4.8204118e-07  1.3421773e+08
   1230000   1.0660246      0.016153924    31.435477      31.45163       1.5959138      33.047544      1.7357691e-06  1.3421773e+08
   1240000   1.0427739      0.0097967396   31.429455      31.439252      1.5611058      33.000357      1.4114667e-06  1.3421773e+08
   1250000   0.99273144     0.011450932    31.510236      31.521686      1.4861888      33.007875     -2.6854262e-06  1.3421773e+08
   1260000   1.0367241      0.015125998    31.492317      31.507443      1.5520488      33.059492     -2.6193363e-06  1.3421773e+08
   1270000   0.96837176     0.013788091    31.483385      31.497173      1.4497206      32.946894     -2.0750743e-06  1.3421773e+08
   1280000   1.104806       0.020305656    31.487361      31.507667      1.6539722      33.161639     -9.2126965e-07  1.3421773e+08
   1290000   0.97310592     0.0090694993   31.448355      31.457424      1.456808       32.914232      8.9660317e-07  1.3421773e+08
   1300000   0.98896361     0.015706179    31.521639      31.537345      1.4805481      33.017893      1.3309713e-07  1.3421773e+08
   1310000   1.0506095      0.018473963    31.431672      31.450146      1.5728363      33.022982     -1.3954059e-06  1.3421773e+08
   1320000   0.99909197     0.013558571    31.456873      31.470431      1.4957109      32.966142      2.7251937e-06  1.3421773e+08
   1330000   1.0312548      0.01082297     31.520068      31.530891      1.543861       33.074752      3.2446642e-07  1.3421773e+08
   1340000   0.98593996     0.012608668    31.399697      31.412306      1.4760214      32.888327      9.6931727e-08  1.3421773e+08
   1350000   0.97745921     0.010854021    31.53931       31.550164      1.4633252      33.013489      7.3078712e-07  1.3421773e+08
   1360000   1.0304735      0.021170688    31.481991      31.503162      1.5426913      33.045853      1.7690314e-06  1.3421773e+08
   1370000   0.97964965     0.023123954    31.406176      31.4293        1.4666044      32.895905     -2.441199e-06   1.3421773e+08
   1380000   1.0038199      0.019434449    31.448328      31.467762      1.502789       32.970551      1.1881758e-07  1.3421773e+08
   1390000   0.95383949     0.01539046     31.475457      31.490848      1.4279648      32.918813      1.6653572e-06  1.3421773e+08
   1400000   1.0110237      0.016008219    31.4485        31.464508      1.5135736      32.978081      2.80237e-06    1.3421773e+08
   1410000   1.0364621      0.007305652    31.460496      31.467801      1.5516567      33.019458     -1.0714453e-06  1.3421773e+08
   1420000   1.0733694      0.008388166    31.469653      31.478041      1.6069094      33.08495       3.5221048e-06  1.3421773e+08
   1430000   1.0095828      0.015364318    31.448148      31.463513      1.5114164      32.974929      1.1912059e-06  1.3421773e+08
   1440000   1.002483       0.017610589    31.460231      31.477842      1.5007875      32.978629     -1.2807665e-07  1.3421773e+08
   1450000   0.98399776     0.020500764    31.458048      31.478548      1.4731138      32.951662      1.2549099e-07  1.3421773e+08
   1460000   0.97824339     0.019864556    31.450441      31.470306      1.4644991      32.934805     -7.4854881e-07  1.3421773e+08
   1470000   1.0574133      0.019029158    31.480464      31.499493      1.5830221      33.082516     -3.3686832e-06  1.3421773e+08
   1480000   0.96782123     0.017606735    31.499345      31.516951      1.4488964      32.965848      1.6736096e-06  1.3421773e+08
   1490000   1.0014419      0.011145008    31.553704      31.564849      1.499229       33.064078     -7.444448e-07   1.3421773e+08
   1500000   0.98885896     0.007838794    31.520515      31.528354      1.4803914      33.008745     -7.5900791e-07  1.3421773e+08
   1510000   1.0047742      0.010326088    31.392021      31.402347      1.5042177      32.906565     -4.2257757e-07  1.3421773e+08
   1520000   0.98661621     0.014174711    31.480379      31.494554      1.4770338      32.971587     -1.8060054e-06  1.3421773e+08
   1530000   1.0096302      0.015197308    31.501168      31.516365      1.5114874      33.027853     -4.5958189e-07  1.3421773e+08
   1540000   1.016482       0.013815896    31.536784      31.5506        1.521745       33.072345     -1.9119674e-06  1.3421773e+08
Loop time of 281.312 on 4 procs for 500000 steps with 512 atoms

Performance: 1535663.500 tau/day, 1777.388 timesteps/s
100.0% CPU use with 4 MPI tasks x 1 OpenMP threads

MPI task timing breakdown:
Section |  min time  |  avg time  |  max time  |%varavg| %total
---------------------------------------------------------------
Pair    | 0.068486   | 1.4552     | 4.0429     | 133.4 |  0.52
Bond    | 0.12127    | 3.6301     | 10.3       | 216.3 |  1.29
Neigh   | 235.12     | 235.18     | 235.23     |   0.3 | 83.60
Comm    | 17.998     | 22.219     | 26.356     |  78.2 |  7.90
Output  | 0.025003   | 0.02524    | 0.025366   |   0.1 |  0.01
Modify  | 0.22378    | 4.0923     | 11.436     | 224.2 |  1.45
Other   |            | 14.71      |            |       |  5.23

Nlocal:            128 ave         446 max           0 min
Histogram: 2 1 0 0 0 0 0 0 0 1
Nghost:             90 ave         167 max          21 min
Histogram: 1 0 0 1 0 1 0 0 0 1
Neighs:          614.5 ave        2044 max           0 min
Histogram: 2 1 0 0 0 0 0 0 0 1

Total # of neighbors = 2458
Ave neighs/atom = 4.8007812
Ave special neighs/atom = 1.9960938
Neighbor list builds = 15843
Dangerous builds = 0
write_restart 	restart._N512_k0.5.dat
System init for write_restart ...
Generated 0 of 0 mixed pair_coeff terms from geometric mixing rule
Total wall time: 0:04:41
