print ">>>>>>>>>>>>>>>>>>>>>>>>>>>>>>>>>>>>>>>>>>>>>>>>>>>>>>>>>>>>>>>>>>>>>>>>>>>>>>>N: 512 K: 0.5"
>>>>>>>>>>>>>>>>>>>>>>>>>>>>>>>>>>>>>>>>>>>>>>>>>>>>>>>>>>>>>>>>>>>>>>>>>>>>>>>N: 512 K: 0.5
read_restart restart._N512_k0.5.dat
Reading restart file ...
  restart file = 23 Jun 2022, LAMMPS = 23 Jun 2022
  restoring atom style angle from restart
  orthogonal box = (-256 -256 -256) to (256 256 256)
  1 by 2 by 2 MPI processor grid
  restoring pair style lj/cut from restart
  restoring bond style fene from restart
  restoring angle style cosine from restart
  512 atoms
  511 bonds
  510 angles
Finding 1-2 1-3 1-4 neighbors ...
  special bond factors lj:    0        1        1       
  special bond factors coul:  0        1        1       
     2 = max # of 1-2 neighbors
     6 = max # of special neighbors
  special bonds CPU = 0.000 seconds
  read_restart CPU = 0.005 seconds
# sets up computes needed for continuing a run from a restart file

# dumps and fixes, dumps are already handled in the python file



###

# Set up fixes - as these are not stored in the restart files

###

variable seed equal 315987     # a seed for the thermostat

fix 1 all nve                             # NVE integrator

fix 2 all langevin   1.0 1.0 1.0 ${seed}  # langevin thermostat

fix 2 all langevin   1.0 1.0 1.0 315987  


##### Calculate thermodynamics to write ###################################

variable t equal step

variable mytemp equal temp

variable myepair equal epair

############################################################################



############################################################################

#### Set up a compute for R_g

compute myRG2compute all gyration

#### and write it to a file

variable RG2 equal c_myRG2compute

############################################################################



##### Output thermodynamic info  (temperature, energy, pressure, etc.) #####

thermo 10000

thermo_style   custom   step  temp  epair  emol pe ke etotal  press  vol

############################################################################



###

# modify neighborlist behaviour since this too is not recorded

###

neighbor 1.9 bin

neigh_modify every 1 delay 1 check yes

fix mythermofile all print 10000 "$t ${mytemp} ${myepair}" file thermo_output_N512_k0.5.dat screen no
fix myRG2file all print 10000 "$t ${RG2}" file radius_of_gyration_squared_N512_k0.5.dat screen no
dump dum2 all custom 10000 dump_N512_k0.5.dynamics id type x y z
dump_modify dum2  sort id
run 1500000
Generated 0 of 0 mixed pair_coeff terms from geometric mixing rule
Neighbor list info ...
  update every 1 steps, delay 1 steps, check yes
  max neighbors/atom: 2000, page size: 100000
  master list distance cutoff = 3.0224615
  ghost atom cutoff = 3.55
  binsize = 1.5112308, bins = 339 339 339
  1 neighbor lists, perpetual/occasional/extra = 1 0 0
  (1) pair lj/cut, perpetual
      attributes: half, newton on
      pair build: half/bin/newton
      stencil: half/bin/3d
      bin: standard
Per MPI rank memory allocation (min/avg/max) = 47.7 | 47.87 | 48.11 Mbytes
   Step          Temp          E_pair         E_mol          PotEng         KinEng         TotEng         Press          Volume    
   1540000   1.016482       0.013815896    31.536784      31.5506        1.521745       33.072345     -1.9119674e-06  1.3421773e+08
   1550000   1.0585699      0.014225639    31.476412      31.490638      1.5847535      33.075391     -1.1841331e-06  1.3421773e+08
   1560000   1.0602652      0.02528864     31.479781      31.505069      1.5872916      33.092361      4.3609181e-06  1.3421773e+08
   1570000   1.0103961      0.023278062    31.480432      31.50371       1.512634       33.016344     -2.9462328e-07  1.3421773e+08
   1580000   0.99332043     0.018365554    31.548637      31.567003      1.4870705      33.054073     -1.8552633e-06  1.3421773e+08
   1590000   1.0255551      0.021450028    31.512062      31.533512      1.5353281      33.06884       5.6013727e-07  1.3421773e+08
   1600000   1.0537987      0.019230097    31.498678      31.517908      1.5776108      33.095519      4.1054451e-06  1.3421773e+08
   1610000   1.0080298      0.010987456    31.478453      31.489441      1.5090916      32.998532     -1.370871e-06   1.3421773e+08
   1620000   0.99727261     0.019940167    31.430269      31.450209      1.4929872      32.943196      1.3284368e-06  1.3421773e+08
   1630000   0.99388101     0.012562715    31.54698       31.559543      1.4879098      33.047452     -3.0958654e-06  1.3421773e+08
   1640000   0.97390887     0.024973709    31.498884      31.523858      1.4580101      32.981868      1.2234617e-06  1.3421773e+08
   1650000   1.0523085      0.013090388    31.524928      31.538019      1.5753798      33.113398     -4.2759787e-06  1.3421773e+08
   1660000   1.0608738      0.019567031    31.460959      31.480526      1.5882027      33.068729      1.5624244e-06  1.3421773e+08
   1670000   0.99387603     0.023247906    31.488158      31.511405      1.4879023      32.999308     -5.0754269e-07  1.3421773e+08
   1680000   1.0250282      0.013318697    31.426587      31.439906      1.5345393      32.974445      2.7121527e-06  1.3421773e+08
   1690000   1.0671582      0.0071060556   31.464809      31.471915      1.5976109      33.069526     -3.0461911e-06  1.3421773e+08
   1700000   0.94045312     0.012566485    31.513378      31.525945      1.4079244      32.933869     -1.0249167e-06  1.3421773e+08
   1710000   0.99405022     0.0086673773   31.485119      31.493786      1.4881631      32.981949     -7.0454314e-07  1.3421773e+08
   1720000   1.0441095      0.01171646     31.492722      31.504439      1.5631054      33.067544      4.6765127e-06  1.3421773e+08
   1730000   0.98305706     0.0064945785   31.499106      31.505601      1.4717055      32.977306      6.5486612e-07  1.3421773e+08
   1740000   1.0164511      0.017597374    31.493626      31.511223      1.5216988      33.032922     -2.1035985e-06  1.3421773e+08
   1750000   1.0383544      0.016531568    31.533014      31.549546      1.5544895      33.104035     -4.3128881e-06  1.3421773e+08
   1760000   0.97575066     0.013196822    31.559908      31.573105      1.4607673      33.033872     -4.3192356e-06  1.3421773e+08
   1770000   0.96294114     0.015280971    31.440719      31.456         1.4415906      32.89759      -1.201111e-06   1.3421773e+08
   1780000   1.0348357      0.015700626    31.511552      31.527253      1.5492219      33.076475     -1.423367e-06   1.3421773e+08
   1790000   1.0336744      0.018325963    31.51788       31.536206      1.5474832      33.083689     -5.7597875e-07  1.3421773e+08
   1800000   1.0155889      0.010391555    31.540809      31.551201      1.5204081      33.071609     -2.9182643e-08  1.3421773e+08
   1810000   0.99116122     0.029230241    31.458722      31.487953      1.483838       32.971791      1.8579322e-06  1.3421773e+08
   1820000   0.96492196     0.017531417    31.45814       31.475672      1.444556       32.920228      1.2927717e-06  1.3421773e+08
   1830000   1.030496       0.020463432    31.441574      31.462038      1.542725       33.004763      7.3471668e-07  1.3421773e+08
   1840000   0.98990874     0.020394922    31.443272      31.463667      1.481963       32.94563      -3.8223689e-07  1.3421773e+08
   1850000   0.97951913     0.012742434    31.525287      31.538029      1.466409       33.004438     -4.401128e-06   1.3421773e+08
   1860000   1.0026464      0.01674034     31.459862      31.476602      1.5010322      32.977634      2.3052973e-06  1.3421773e+08
   1870000   0.94735827     0.0092392164   31.479628      31.488868      1.4182619      32.907129      6.3160598e-08  1.3421773e+08
   1880000   1.0429217      0.0097473187   31.528574      31.538321      1.5613271      33.099648     -2.4522362e-06  1.3421773e+08
   1890000   0.95287272     0.0088230857   31.484274      31.493097      1.4265175      32.919615      9.5939322e-07  1.3421773e+08
   1900000   0.9657422      0.015507293    31.39162       31.407127      1.445784       32.852911      2.7744957e-06  1.3421773e+08
   1910000   0.98948515     0.013997698    31.519974      31.533972      1.4813288      33.015301     -9.4491449e-07  1.3421773e+08
   1920000   1.0187957      0.01078278     31.511541      31.522324      1.5252088      33.047533     -2.6616042e-06  1.3421773e+08
   1930000   1.0406893      0.027382805    31.496922      31.524305      1.5579851      33.08229      -1.6343136e-06  1.3421773e+08
   1940000   1.0287878      0.028496877    31.463713      31.49221       1.5401677      33.032377      6.6858625e-07  1.3421773e+08
   1950000   1.0534969      0.026700385    31.542062      31.568762      1.5771589      33.145921      2.1228093e-06  1.3421773e+08
   1960000   1.0142653      0.024181575    31.505712      31.529893      1.5184265      33.04832      -1.3295587e-07  1.3421773e+08
   1970000   1.0349038      0.01805675     31.465201      31.483258      1.5493238      33.032582     -1.851794e-06   1.3421773e+08
   1980000   0.96467911     0.022573503    31.461627      31.484201      1.4441925      32.928393     -1.3569514e-07  1.3421773e+08
   1990000   0.95791722     0.025665727    31.490418      31.516084      1.4340694      32.950153      1.5276137e-06  1.3421773e+08
   2000000   0.9969433      0.02128514     31.538734      31.560019      1.4924942      33.052513      1.2964011e-06  1.3421773e+08
   2010000   1.0282414      0.0189569      31.480009      31.498966      1.5393497      33.038315      4.9368016e-07  1.3421773e+08
   2020000   1.0111908      0.015676618    31.450637      31.466314      1.5138238      32.980138      6.8118602e-07  1.3421773e+08
   2030000   1.0302627      0.014231854    31.455936      31.470168      1.5423757      33.012544     -5.8547648e-07  1.3421773e+08
   2040000   0.93646532     0.013936116    31.412649      31.426585      1.4019544      32.82854      -1.4141974e-06  1.3421773e+08
   2050000   0.93351437     0.023725494    31.501038      31.524763      1.3975367      32.9223        5.8802732e-07  1.3421773e+08
   2060000   1.0510095      0.019645714    31.479702      31.499348      1.5734351      33.072783     -5.9166911e-07  1.3421773e+08
   2070000   1.0337494      0.0096004534   31.431661      31.441261      1.5475955      32.988857      1.5483077e-06  1.3421773e+08
   2080000   1.0136959      0.015593884    31.522158      31.537752      1.517574       33.055326     -6.6571761e-07  1.3421773e+08
   2090000   1.0333291      0.016191442    31.437474      31.453665      1.5469663      33.000632      2.7613468e-08  1.3421773e+08
   2100000   0.98155334     0.014843993    31.495383      31.510227      1.4694544      32.979682      2.6181016e-06  1.3421773e+08
   2110000   1.0025206      0.019654861    31.451322      31.470977      1.5008438      32.971821      1.0510036e-06  1.3421773e+08
   2120000   0.99522576     0.014907894    31.480774      31.495682      1.4899229      32.985605     -1.539575e-07   1.3421773e+08
   2130000   0.97722774     0.018454863    31.440595      31.459049      1.4629786      32.922028     -8.5908914e-07  1.3421773e+08
   2140000   1.0440279      0.013171607    31.486386      31.499558      1.5629832      33.062541      1.2986799e-06  1.3421773e+08
   2150000   0.95598209     0.015752152    31.495436      31.511188      1.4311724      32.94236       5.7648472e-07  1.3421773e+08
   2160000   0.95661465     0.013801746    31.514071      31.527873      1.4321194      32.959993      4.125851e-07   1.3421773e+08
   2170000   0.97373987     0.020226839    31.512083      31.53231       1.457757       32.990067      1.1277699e-06  1.3421773e+08
   2180000   0.98823618     0.018466218    31.485624      31.504091      1.479459       32.98355      -2.1551757e-06  1.3421773e+08
   2190000   1.0258472      0.022066562    31.52217       31.544237      1.5357654      33.080002      1.2113993e-06  1.3421773e+08
   2200000   0.94194154     0.010455312    31.476987      31.487443      1.4101527      32.897595      5.6908305e-07  1.3421773e+08
   2210000   1.0077617      0.018243836    31.500652      31.518895      1.5086901      33.027586     -7.3957723e-07  1.3421773e+08
   2220000   1.0125089      0.027428137    31.529871      31.557299      1.515797       33.073096     -3.9832146e-07  1.3421773e+08
   2230000   1.0212072      0.026446788    31.482459      31.508906      1.528819       33.037725      5.0659608e-07  1.3421773e+08
   2240000   0.96339355     0.013225705    31.525721      31.538947      1.4422679      32.981215     -2.0494826e-06  1.3421773e+08
   2250000   0.98566012     0.034784607    31.523128      31.557912      1.4756025      33.033515     -2.9074205e-06  1.3421773e+08
   2260000   0.9849729      0.018895101    31.474404      31.493299      1.4745737      32.967872      7.9231234e-07  1.3421773e+08
   2270000   1.002688       0.012147708    31.476712      31.48886       1.5010944      32.989954     -1.5563777e-06  1.3421773e+08
   2280000   0.98756289     0.015711738    31.463278      31.47899       1.4784511      32.957441      4.6062958e-07  1.3421773e+08
   2290000   1.0498791      0.0070862023   31.455498      31.462584      1.5717428      33.034326      1.5677687e-07  1.3421773e+08
   2300000   0.97701185     0.014863152    31.425334      31.440197      1.4626554      32.902853      6.1454446e-07  1.3421773e+08
   2310000   0.95008078     0.012821387    31.518992      31.531813      1.4223377      32.954151     -1.7400137e-06  1.3421773e+08
   2320000   0.96902758     0.016882962    31.504087      31.52097       1.4507024      32.971673      3.6390479e-06  1.3421773e+08
   2330000   1.0595873      0.013298936    31.511341      31.52464       1.5862767      33.110917     -2.2138156e-06  1.3421773e+08
   2340000   1.0369681      0.014445613    31.46087       31.475315      1.5524142      33.027729      1.1425967e-08  1.3421773e+08
   2350000   0.91656605     0.0096430683   31.489185      31.498828      1.3721638      32.870992     -2.1997388e-07  1.3421773e+08
   2360000   0.99417133     0.021060826    31.493913      31.514974      1.4883444      33.003318     -9.9320649e-07  1.3421773e+08
   2370000   0.93835116     0.018667265    31.507662      31.526329      1.4047777      32.931107      5.7518015e-07  1.3421773e+08
   2380000   1.0115397      0.017284942    31.494634      31.511919      1.514346       33.026265     -1.0419545e-06  1.3421773e+08
   2390000   0.97568628     0.020416983    31.549373      31.56979       1.460671       33.030461     -4.2223381e-07  1.3421773e+08
   2400000   1.0409719      0.013638221    31.447505      31.461143      1.5584082      33.019551      1.1785709e-07  1.3421773e+08
   2410000   0.99980143     0.012000924    31.554079      31.56608       1.496773       33.062853      5.1263667e-07  1.3421773e+08
   2420000   1.029638       0.012399151    31.423187      31.435586      1.5414405      32.977026      1.5063345e-06  1.3421773e+08
   2430000   0.99436975     0.022598933    31.609073      31.631672      1.4886414      33.120313     -1.846185e-07   1.3421773e+08
   2440000   0.99973033     0.034401099    31.474394      31.508795      1.4966666      33.005462     -1.1716451e-08  1.3421773e+08
   2450000   1.000119       0.030915279    31.464178      31.495094      1.4972485      32.992342     -1.1758319e-06  1.3421773e+08
   2460000   0.97236049     0.014451105    31.514501      31.528952      1.455692       32.984644      5.5728522e-08  1.3421773e+08
   2470000   1.1017696      0.010964354    31.461194      31.472158      1.6494265      33.121585     -2.6196184e-06  1.3421773e+08
   2480000   0.97630873     0.018576485    31.455323      31.4739        1.4616028      32.935503      2.0377913e-06  1.3421773e+08
   2490000   0.93266963     0.008736609    31.460319      31.469056      1.396272       32.865328      4.9093963e-06  1.3421773e+08
   2500000   0.95852992     0.023858319    31.460248      31.484106      1.4349867      32.919093      2.5874325e-09  1.3421773e+08
   2510000   0.97820196     0.030083434    31.459726      31.489809      1.4644371      32.954246     -2.1928164e-06  1.3421773e+08
   2520000   0.95855987     0.0054586006   31.519964      31.525423      1.4350315      32.960454     -1.8175578e-06  1.3421773e+08
   2530000   1.0135843      0.015879915    31.500248      31.516128      1.517407       33.033535     -2.3092734e-06  1.3421773e+08
   2540000   1.0407587      0.023188716    31.457117      31.480305      1.5580889      33.038394      7.1998397e-07  1.3421773e+08
   2550000   0.95769451     0.026079697    31.506212      31.532291      1.433736       32.966027     -1.5604896e-06  1.3421773e+08
   2560000   1.0218602      0.011928509    31.492815      31.504744      1.5297965      33.03454      -2.2962121e-07  1.3421773e+08
   2570000   0.98927776     0.018658503    31.466835      31.485494      1.4810184      32.966512     -6.1168881e-07  1.3421773e+08
   2580000   1.0068037      0.022625659    31.491759      31.514385      1.5072559      33.021641     -1.9859477e-06  1.3421773e+08
   2590000   0.97021712     0.021202503    31.484879      31.506081      1.4524832      32.958564      5.826404e-07   1.3421773e+08
   2600000   1.0414981      0.028198873    31.468772      31.496971      1.5591959      33.056167      4.2633141e-07  1.3421773e+08
   2610000   1.0083823      0.01748031     31.442832      31.460312      1.5096192      32.969932     -2.0188075e-07  1.3421773e+08
   2620000   1.0233059      0.019806822    31.491679      31.511486      1.5319609      33.043447      3.0352171e-06  1.3421773e+08
   2630000   1.0100266      0.010176117    31.547336      31.557512      1.5120808      33.069593      7.5381424e-07  1.3421773e+08
   2640000   0.95722685     0.02282407     31.447297      31.470121      1.4330359      32.903157      1.4560551e-06  1.3421773e+08
   2650000   1.0520441      0.013082884    31.545192      31.558275      1.5749839      33.133259     -2.3957009e-06  1.3421773e+08
   2660000   1.0362189      0.023665267    31.460987      31.484652      1.5512926      33.035945     -4.4104526e-06  1.3421773e+08
   2670000   1.0401487      0.0098883583   31.522054      31.531942      1.5571758      33.089118     -4.5831089e-06  1.3421773e+08
   2680000   0.98791723     0.030841392    31.487058      31.517899      1.4789816      32.99688       1.958871e-06   1.3421773e+08
   2690000   0.96456169     0.0099156488   31.480284      31.4902        1.4440167      32.934216     -1.1744951e-06  1.3421773e+08
   2700000   1.01789        0.019405586    31.457193      31.476599      1.5238529      33.000452     -2.0026457e-06  1.3421773e+08
   2710000   0.98899347     0.018688078    31.457791      31.476479      1.4805928      32.957072     -1.0216754e-07  1.3421773e+08
   2720000   0.95490398     0.016128197    31.535675      31.551804      1.4295584      32.981362      2.2778176e-06  1.3421773e+08
   2730000   0.96876343     0.018391724    31.452932      31.471324      1.450307       32.921631      4.1004735e-06  1.3421773e+08
   2740000   0.99905405     0.011975795    31.443164      31.45514       1.4956542      32.950794      2.5043273e-07  1.3421773e+08
   2750000   1.0247495      0.025091843    31.473578      31.49867       1.534122       33.032792     -1.7379056e-06  1.3421773e+08
   2760000   1.0349564      0.009237468    31.482574      31.491811      1.5494025      33.041214      2.8426813e-06  1.3421773e+08
   2770000   0.98449532     0.01133217     31.435574      31.446906      1.4738587      32.920765     -1.2055661e-06  1.3421773e+08
   2780000   1.0503371      0.0071920562   31.465448      31.47264       1.5724285      33.045068     -2.6080181e-06  1.3421773e+08
   2790000   1.002143       0.015501878    31.469541      31.485043      1.5002786      32.985322     -1.9260865e-06  1.3421773e+08
   2800000   1.0101055      0.023457716    31.521023      31.544481      1.512199       33.05668       1.5870541e-06  1.3421773e+08
   2810000   0.96623792     0.018537494    31.521501      31.540039      1.4465261      32.986565      2.7803456e-06  1.3421773e+08
   2820000   1.0589435      0.01982031     31.512797      31.532617      1.5853129      33.11793      -1.5120776e-06  1.3421773e+08
   2830000   0.97782018     0.017391931    31.47715       31.494542      1.4638656      32.958407     -1.317732e-06   1.3421773e+08
   2840000   1.0113192      0.010261459    31.474053      31.484315      1.514016       32.998331      2.3196988e-06  1.3421773e+08
   2850000   1.0569576      0.016820629    31.483274      31.500095      1.5823398      33.082435      1.7117903e-06  1.3421773e+08
   2860000   1.0195821      0.012103545    31.469833      31.481936      1.5263861      33.008323     -1.0549335e-06  1.3421773e+08
   2870000   0.98189166     0.02123479     31.486898      31.508133      1.4699609      32.978093      2.7610828e-06  1.3421773e+08
   2880000   1.0531556      0.0089436254   31.477895      31.486838      1.576648       33.063486      2.8688265e-07  1.3421773e+08
   2890000   0.92498155     0.018077328    31.443275      31.461353      1.3847624      32.846115      3.2304922e-06  1.3421773e+08
   2900000   1.0302164      0.019094228    31.445075      31.464169      1.5423063      33.006475     -2.5296427e-07  1.3421773e+08
   2910000   1.0454508      0.017018686    31.477782      31.494801      1.5651133      33.059914      1.4192587e-06  1.3421773e+08
   2920000   0.95724274     0.010670104    31.535747      31.546417      1.4330597      32.979477      8.4572652e-07  1.3421773e+08
   2930000   1.0294863      0.026390755    31.474117      31.500508      1.5412134      33.041721     -4.3485793e-07  1.3421773e+08
   2940000   0.93867573     0.011847389    31.531567      31.543414      1.4052636      32.948678     -1.0420584e-06  1.3421773e+08
   2950000   1.0044373      0.0080065812   31.419916      31.427922      1.5037133      32.931636      1.4138783e-06  1.3421773e+08
   2960000   1.0177911      0.019822587    31.487388      31.50721       1.5237048      33.030915     -1.6376118e-07  1.3421773e+08
   2970000   0.97226259     0.016850405    31.503277      31.520127      1.4555455      32.975673     -5.4394817e-07  1.3421773e+08
   2980000   1.0098551      0.012722119    31.414571      31.427293      1.5118241      32.939117     -2.7818111e-06  1.3421773e+08
   2990000   0.96348113     0.0118115      31.455076      31.466888      1.442399       32.909287      2.6704165e-07  1.3421773e+08
   3000000   1.0469075      0.011888313    31.46327       31.475158      1.5672942      33.042453      1.6129577e-06  1.3421773e+08
   3010000   0.97897523     0.02243873     31.491306      31.513744      1.4655948      32.979339      4.3008801e-07  1.3421773e+08
   3020000   1.0017323      0.0092297733   31.486892      31.496122      1.4996636      32.995785      3.3374862e-07  1.3421773e+08
   3030000   1.0368543      0.025876043    31.487076      31.512953      1.5522438      33.065196      1.5950045e-06  1.3421773e+08
   3040000   1.0373174      0.013029196    31.509458      31.522487      1.5529371      33.075424     -3.4231422e-06  1.3421773e+08
Loop time of 887.44 on 4 procs for 1500000 steps with 512 atoms

Performance: 1460380.222 tau/day, 1690.255 timesteps/s
100.0% CPU use with 4 MPI tasks x 1 OpenMP threads

MPI task timing breakdown:
Section |  min time  |  avg time  |  max time  |%varavg| %total
---------------------------------------------------------------
Pair    | 0.8958     | 4.6585     | 10.8       | 174.9 |  0.52
Bond    | 2.038      | 11.405     | 26.922     | 280.7 |  1.29
Neigh   | 754.12     | 754.27     | 754.39     |   0.4 | 84.99
Comm    | 56.967     | 71.144     | 83.365     | 119.1 |  8.02
Output  | 0.07202    | 0.072101   | 0.072219   |   0.0 |  0.01
Modify  | 2.62       | 13.184     | 30.555     | 291.9 |  1.49
Other   |            | 32.71      |            |       |  3.69

Nlocal:            128 ave         270 max          10 min
Histogram: 1 0 1 0 0 0 1 0 0 1
Nghost:          71.75 ave         148 max          16 min
Histogram: 2 0 0 0 0 0 1 0 0 1
Neighs:            564 ave        1254 max          22 min
Histogram: 1 1 0 0 0 1 0 0 0 1

Total # of neighbors = 2256
Ave neighs/atom = 4.40625
Ave special neighs/atom = 1.9960938
Neighbor list builds = 47503
Dangerous builds = 0
write_restart 	restart._N512_k0.5.dat
System init for write_restart ...
Generated 0 of 0 mixed pair_coeff terms from geometric mixing rule
Total wall time: 0:14:47
