ITEM: TIMESTEP
1560000
ITEM: NUMBER OF ATOMS
128
ITEM: BOX BOUNDS mm mm mm
-6.4000000000000000e+01 6.4000000000000000e+01
-6.4000000000000000e+01 6.4000000000000000e+01
-6.4000000000000000e+01 6.4000000000000000e+01
ITEM: ATOMS id type x y z
1 1 -23.4725 3.29537 1.43337
2 1 -23.3381 2.41155 1.6371
3 1 -22.9346 1.52442 1.65932
4 1 -22.4143 0.716962 1.74269
5 1 -21.6205 0.616097 1.29322
6 1 -21.8298 0.185243 0.484002
7 1 -21.6283 0.800698 -0.198676
8 1 -21.8632 0.74411 -1.11525
9 1 -21.8152 0.589287 -2.02801
10 1 -22.2409 0.656362 -2.83459
11 1 -21.6337 0.073662 -3.32968
12 1 -21.1392 0.389147 -4.04725
13 1 -20.4262 0.888644 -4.40474
14 1 -19.8068 1.1851 -3.70642
15 1 -19.8179 1.54754 -2.88825
16 1 -19.3045 2.40059 -2.95528
17 1 -18.7194 2.93759 -2.39628
18 1 -18.9059 2.73777 -1.45893
19 1 -19.0288 3.66466 -1.57977
20 1 -19.7629 3.51677 -0.97406
21 1 -19.5452 4.10446 -0.311444
22 1 -19.7924 4.92199 0.149619
23 1 -20.0873 5.76117 0.489842
24 1 -20.2197 5.69923 1.48703
25 1 -21.0307 6.02038 1.96772
26 1 -21.7305 6.62087 2.27381
27 1 -22.5319 7.22898 2.02163
28 1 -23.0162 7.07966 1.2203
29 1 -23.7718 6.90111 0.686915
30 1 -24.2985 7.5367 0.192037
31 1 -24.1396 8.0606 -0.586262
32 1 -23.885 8.01819 -1.49262
33 1 -23.5564 7.63499 -2.25873
34 1 -22.9286 6.92759 -2.56481
35 1 -22.2251 6.78925 -3.16484
36 1 -21.692 6.81666 -3.96585
37 1 -21.0218 7.28732 -4.38777
38 1 -20.1844 7.63965 -4.57539
39 1 -19.3093 7.30993 -4.64975
40 1 -18.4782 7.5322 -4.28326
41 1 -17.5599 7.87871 -4.34113
42 1 -16.8344 8.15383 -3.73297
43 1 -16.4845 7.99855 -2.87152
44 1 -15.7538 8.53502 -2.54496
45 1 -15.3803 9.27443 -2.05874
46 1 -14.7771 8.63435 -1.87951
47 1 -14.1906 7.93003 -1.79904
48 1 -14.1918 7.07632 -2.16044
49 1 -13.523 6.64981 -2.70005
50 1 -13.0029 5.81994 -2.57758
51 1 -12.3662 5.578 -3.23595
52 1 -12.2085 6.33432 -3.79335
53 1 -12.7208 6.67352 -4.45996
54 1 -13.0166 7.49729 -4.70215
55 1 -12.1075 7.57491 -4.51989
56 1 -11.8944 7.58862 -3.58714
57 1 -11.6144 8.48195 -3.63947
58 1 -11.4237 9.22104 -3.089
59 1 -12.0576 9.59172 -2.49348
60 1 -11.6661 9.58027 -1.67367
61 1 -12.1079 9.97443 -0.937314
62 1 -12.5822 10.0493 -0.158451
63 1 -12.2198 9.20964 -0.153491
64 1 -11.6405 8.46524 0.0729237
65 1 -10.7452 8.70027 0.256651
66 1 -10.3198 9.36455 0.832615
67 1 -10.1101 9.02709 1.62732
68 1 -10.2302 9.21568 2.54477
69 1 -11.1774 9.27834 2.75152
70 1 -11.3711 10.1879 2.88975
71 1 -11.4964 11.1533 2.95268
72 1 -11.3723 11.6989 2.18502
73 1 -10.9586 12.1419 1.43628
74 1 -10.7758 12.3417 0.501232
75 1 -10.573 13.1237 0.0801378
76 1 -10.0714 13.7785 -0.423065
77 1 -9.31399 14.3515 -0.215858
78 1 -8.95759 14.1407 0.614593
79 1 -9.71971 14.3437 1.15882
80 1 -9.39195 15.1501 1.59705
81 1 -9.8636 15.7169 2.16836
82 1 -9.97231 16.6795 2.00402
83 1 -9.22624 17.0709 2.49674
84 1 -9.47459 17.9295 2.17671
85 1 -8.55839 18.1018 2.08808
86 1 -7.71496 17.7832 1.94117
87 1 -7.65072 18.3548 1.16164
88 1 -7.34395 19.2039 0.949312
89 1 -7.29638 20.2087 0.785028
90 1 -6.81226 20.9336 1.12931
91 1 -6.51098 21.598 1.81723
92 1 -5.85914 21.2605 2.33653
93 1 -5.26502 21.5708 2.96387
94 1 -4.68745 22.3132 2.95835
95 1 -3.86372 22.8234 2.94774
96 1 -3.09545 23.3092 2.60904
97 1 -2.78234 24.0323 2.12316
98 1 -3.19178 24.8486 1.89188
99 1 -3.74986 25.1093 1.1742
100 1 -4.52342 25.5411 0.970686
101 1 -5.17249 26.1459 1.23519
102 1 -6.08266 26.2043 1.57617
103 1 -7.00449 25.919 1.49276
104 1 -7.2034 25.0698 1.17342
105 1 -7.87222 24.7824 0.557734
106 1 -7.72981 25.3699 -0.249974
107 1 -7.70855 25.3821 -1.19792
108 1 -7.23776 24.9791 -1.87274
109 1 -6.87929 24.6817 -2.72224
110 1 -6.64883 23.9666 -3.24323
111 1 -6.34994 23.573 -4.05122
112 1 -6.77644 23.4239 -4.85296
113 1 -7.36993 24.1884 -4.97548
114 1 -7.6681 24.6992 -5.66112
115 1 -8.34299 24.3417 -6.1996
116 1 -9.24029 24.2232 -6.38432
117 1 -9.72907 24.171 -5.6201
118 1 -10.6169 23.9115 -5.8051
119 1 -11.528 23.9228 -5.59366
120 1 -11.7031 23.4235 -4.80785
121 1 -11.2646 23.0713 -4.01527
122 1 -11.363 22.7234 -3.13767
123 1 -11.9309 22.2572 -2.55197
124 1 -12.0486 21.3261 -2.73641
125 1 -11.2416 21.0298 -2.37852
126 1 -10.5439 20.6596 -1.91555
127 1 -10.6007 19.7438 -2.1648
128 1 -9.76587 19.3853 -2.00626
ITEM: TIMESTEP
1570000
ITEM: NUMBER OF ATOMS
128
ITEM: BOX BOUNDS mm mm mm
-6.4000000000000000e+01 6.4000000000000000e+01
-6.4000000000000000e+01 6.4000000000000000e+01
-6.4000000000000000e+01 6.4000000000000000e+01
ITEM: ATOMS id type x y z
1 1 -27.7407 -3.28821 -1.71402
2 1 -27.0397 -2.7613 -1.30932
3 1 -26.3117 -2.64474 -0.722058
4 1 -25.6482 -2.74108 0.0383532
5 1 -25.8914 -2.49738 0.899736
6 1 -25.3834 -2.92922 1.59789
7 1 -24.7122 -2.60906 2.22307
8 1 -24.7321 -1.79921 2.70166
9 1 -24.0633 -1.07376 2.4921
10 1 -23.8588 -1.18611 1.55269
11 1 -23.0795 -1.03754 1.1023
12 1 -22.9542 -0.121136 1.00853
13 1 -22.1597 0.248249 1.20627
14 1 -21.2219 0.0632041 1.27192
15 1 -20.3298 -0.0387638 1.54898
16 1 -19.5891 -0.235045 2.11228
17 1 -18.8077 -0.485571 2.57308
18 1 -17.9952 -0.621956 2.1224
19 1 -17.0245 -0.676792 1.95453
20 1 -16.2289 -1.13372 1.52421
21 1 -15.9644 -0.343569 1.10669
22 1 -15.5272 0.459552 1.03324
23 1 -15.0301 1.22678 0.798295
24 1 -15.2911 2.0368 0.384427
25 1 -15.876 2.65912 -0.0804692
26 1 -15.5601 2.18997 -0.857388
27 1 -15.7202 1.37811 -1.36498
28 1 -15.2981 1.01233 -2.20634
29 1 -15.0183 1.19733 -3.08675
30 1 -14.9917 1.82422 -3.73197
31 1 -15.1114 2.32461 -4.48231
32 1 -15.0868 3.00478 -5.19524
33 1 -14.9085 3.57857 -5.93628
34 1 -15.3121 4.39208 -5.78998
35 1 -15.1532 4.07739 -4.92973
36 1 -14.288 3.71962 -4.72907
37 1 -13.4535 4.10428 -4.44935
38 1 -12.6189 4.39412 -4.22694
39 1 -11.7581 4.52816 -4.6549
40 1 -11.254 5.27496 -4.40389
41 1 -11.3406 6.20525 -4.38281
42 1 -11.4746 7.04384 -4.02434
43 1 -11.7311 7.92713 -3.95456
44 1 -12.39 8.39577 -3.50174
45 1 -12.9609 9.11764 -3.36845
46 1 -12.967 9.13869 -4.30507
47 1 -13.1987 8.36198 -4.84961
48 1 -12.879 7.71728 -4.26167
49 1 -13.157 6.8949 -4.72076
50 1 -12.8313 6.13408 -4.18671
51 1 -12.4464 5.92909 -3.34429
52 1 -12.1919 5.90159 -2.45786
53 1 -12.3088 5.43378 -1.63031
54 1 -11.65 5.3074 -0.95052
55 1 -10.7685 5.10493 -0.657422
56 1 -10.0033 5.56742 -0.321552
57 1 -10.0797 6.4981 -0.326144
58 1 -9.67973 7.27148 0.00408451
59 1 -9.26433 6.97868 0.815014
60 1 -9.0838 7.04203 1.66177
61 1 -8.39115 6.80284 2.20162
62 1 -8.73052 7.31276 2.91765
63 1 -9.04256 8.20065 2.85185
64 1 -9.55046 8.77737 2.28579
65 1 -9.57692 9.68843 2.27511
66 1 -9.93721 10.5525 2.27488
67 1 -9.84007 11.3651 1.8862
68 1 -10.1194 12.2114 2.05447
69 1 -9.71449 12.3019 1.20842
70 1 -9.01283 12.7535 0.749498
71 1 -8.13302 12.9116 0.945263
72 1 -8.44798 13.5737 1.52334
73 1 -9.18798 14.0636 1.89177
74 1 -9.82892 14.4106 1.31094
75 1 -10.2244 15.1351 1.87503
76 1 -10.9465 15.8207 1.78597
77 1 -10.9736 16.7205 2.14512
78 1 -11.1785 16.832 3.08473
79 1 -10.9218 16.3983 3.86909
80 1 -10.2518 16.095 4.3693
81 1 -9.4472 16.0778 3.82597
82 1 -8.50641 15.9262 3.74333
83 1 -8.09933 16.3889 3.00981
84 1 -7.80663 16.2584 2.11424
85 1 -7.28429 16.4995 1.37585
86 1 -7.12157 16.959 0.538123
87 1 -7.39905 17.8838 0.415353
88 1 -7.42149 18.7924 0.167499
89 1 -6.85532 19.1844 0.844666
90 1 -5.87685 19.3598 0.930796
91 1 -5.57833 19.6827 0.0783366
92 1 -5.50265 19.4077 -0.80042
93 1 -5.87586 19.3176 -1.74734
94 1 -5.6526 18.5841 -2.35237
95 1 -5.59616 18.4943 -3.30007
96 1 -6.50335 18.5568 -3.47106
97 1 -6.77337 19.4309 -3.7193
98 1 -7.01182 20.2485 -3.92041
99 1 -6.77869 20.5602 -3.07696
100 1 -6.12213 20.3873 -2.44257
101 1 -6.20738 20.927 -1.7306
102 1 -5.6139 21.6278 -1.39516
103 1 -6.01226 22.4252 -1.7813
104 1 -6.1135 23.1064 -2.31559
105 1 -5.68978 23.4568 -3.12473
106 1 -6.01579 23.6421 -3.98719
107 1 -6.62703 23.3462 -4.6757
108 1 -7.50926 23.221 -4.95427
109 1 -8.20731 23.2482 -5.5969
110 1 -8.33506 22.9079 -6.48144
111 1 -8.7192 23.0163 -7.28224
112 1 -9.00433 23.538 -8.0136
113 1 -8.28792 24.107 -7.93974
114 1 -8.54914 24.9843 -8.13222
115 1 -9.0684 25.5805 -8.67352
116 1 -10.0295 25.6484 -8.79579
117 1 -10.5537 25.2315 -9.46066
118 1 -10.2849 24.4454 -10.0233
119 1 -10.8147 24.4035 -10.784
120 1 -11.2301 23.9361 -11.5126
121 1 -12.1666 23.9417 -11.6217
122 1 -13.0444 24.1881 -11.3615
123 1 -13.0963 24.8326 -10.6578
124 1 -13.3004 25.59 -10.1545
125 1 -13.6252 26.4331 -9.87064
126 1 -14.0268 27.1154 -9.32182
127 1 -14.7378 27.3335 -8.73179
128 1 -15.645 27.3306 -8.5372
ITEM: TIMESTEP
1580000
ITEM: NUMBER OF ATOMS
128
ITEM: BOX BOUNDS mm mm mm
-6.4000000000000000e+01 6.4000000000000000e+01
-6.4000000000000000e+01 6.4000000000000000e+01
-6.4000000000000000e+01 6.4000000000000000e+01
ITEM: ATOMS id type x y z
1 1 -21.9538 -3.50105 6.54807
2 1 -21.3333 -2.78486 6.41341
3 1 -20.5094 -2.4906 6.07969
4 1 -20.5201 -2.55077 5.17497
5 1 -20.5955 -2.22734 4.27029
6 1 -21.2754 -1.59182 4.07839
7 1 -21.4018 -0.75715 3.60076
8 1 -21.1788 0.112796 3.82717
9 1 -21.0783 0.936457 3.49009
10 1 -20.3092 1.33388 3.09432
11 1 -19.7075 1.50816 2.3869
12 1 -18.9026 2.03963 2.45405
13 1 -18.1924 2.72773 2.57102
14 1 -18.1455 3.03975 1.6831
15 1 -17.4815 3.26273 1.03767
16 1 -17.0113 3.2857 0.188592
17 1 -16.8995 3.79898 -0.556079
18 1 -16.7834 3.15447 -1.27069
19 1 -16.512 2.62143 -1.99253
20 1 -16.2659 2.51744 -2.9126
21 1 -15.7625 2.55333 -3.70476
22 1 -15.9807 2.03506 -4.45046
23 1 -16.6936 2.1679 -5.03264
24 1 -17.5675 2.41836 -5.29821
25 1 -18.3554 2.0495 -5.51266
26 1 -18.5552 2.71542 -4.82762
27 1 -18.0091 3.49965 -4.60305
28 1 -17.4578 4.24961 -4.50793
29 1 -17.2217 4.91714 -3.92358
30 1 -18.0451 5.35621 -3.86627
31 1 -18.9791 5.29562 -3.6242
32 1 -19.5525 5.87335 -4.03041
33 1 -18.7902 6.23074 -3.60209
34 1 -18.4422 7.08557 -3.67952
35 1 -18.1279 7.86429 -3.24049
36 1 -17.4727 8.46742 -2.96749
37 1 -16.9978 7.87779 -2.36015
38 1 -16.3076 7.1635 -2.48781
39 1 -15.5383 6.59407 -2.42724
40 1 -15.0524 7.00712 -1.76728
41 1 -14.5588 7.82626 -1.58409
42 1 -14.6547 8.23685 -0.757425
43 1 -14.4228 8.14572 0.123592
44 1 -13.617 8.07042 0.518611
45 1 -12.7535 7.60597 0.602851
46 1 -11.8142 7.63104 0.554735
47 1 -11.3058 6.85477 0.589987
48 1 -10.6835 6.29768 0.196495
49 1 -10.9791 5.61058 -0.287594
50 1 -10.3401 5.68217 -0.928827
51 1 -9.56212 5.35095 -1.34661
52 1 -8.72287 5.16376 -1.7187
53 1 -8.41202 5.26864 -2.66396
54 1 -8.63752 6.0124 -3.14487
55 1 -8.30414 6.85722 -3.29975
56 1 -8.32432 7.73038 -3.79348
57 1 -9.09993 7.92835 -4.31821
58 1 -9.18355 7.7659 -5.22057
59 1 -8.89794 8.14711 -6.00611
60 1 -8.9353 8.59903 -6.80265
61 1 -9.06598 9.50233 -6.61809
62 1 -9.17208 10.2015 -6.01362
63 1 -9.09674 10.8045 -5.25512
64 1 -9.41767 11.5959 -4.89733
65 1 -9.50586 12.5107 -4.85604
66 1 -9.86169 13.3071 -5.19304
67 1 -10.3471 13.7905 -5.87759
68 1 -10.6509 14.6626 -5.9808
69 1 -11.5251 14.7782 -6.12065
70 1 -12.4698 14.8046 -6.05495
71 1 -12.8544 15.1867 -5.23181
72 1 -13.3668 15.7618 -4.6743
73 1 -13.9012 15.433 -4.02835
74 1 -13.4436 15.2498 -3.23571
75 1 -12.8306 15.3001 -2.51784
76 1 -12.1204 15.3141 -1.89958
77 1 -12.0257 16.1869 -1.48303
78 1 -11.7591 16.8171 -2.04257
79 1 -11.1734 17.2483 -1.52136
80 1 -10.8749 17.6574 -0.726785
81 1 -10.9239 17.5789 0.201088
82 1 -10.3396 16.8875 0.128932
83 1 -9.55404 16.36 0.283418
84 1 -8.94298 16.9094 0.697473
85 1 -8.14549 16.775 1.1953
86 1 -7.27553 16.7691 0.808379
87 1 -6.59516 17.2985 1.13068
88 1 -5.93303 17.9809 0.929256
89 1 -6.10261 18.807 0.603871
90 1 -5.581 19.4931 0.189761
91 1 -6.2287 20.1043 -0.135108
92 1 -7.15782 20.2859 0.0224481
93 1 -7.91279 20.534 -0.447569
94 1 -7.85951 21.2857 -0.906813
95 1 -7.90697 21.3942 -1.82181
96 1 -7.72634 22.0302 -2.46097
97 1 -6.819 21.8756 -2.77149
98 1 -6.02521 22.3248 -2.65761
99 1 -5.68622 23.2222 -2.69488
100 1 -6.26445 23.9662 -2.77571
101 1 -7.02609 24.4925 -2.94362
102 1 -7.92352 24.4358 -2.54309
103 1 -8.73314 23.9933 -2.8189
104 1 -9.64006 24.2797 -2.81449
105 1 -10.0602 25.0627 -3.26024
106 1 -9.12246 25.1967 -3.64356
107 1 -8.97787 25.5621 -4.48172
108 1 -9.27668 26.3565 -4.88073
109 1 -9.42781 26.4577 -5.84985
110 1 -9.49206 26.2773 -6.73635
111 1 -9.49128 25.6898 -7.50244
112 1 -9.33199 24.8807 -7.96756
113 1 -9.71803 24.4012 -8.63875
114 1 -10.2584 23.5627 -8.77941
115 1 -10.9765 23.7328 -9.31992
116 1 -11.1758 24.159 -10.1454
117 1 -11.701 24.3211 -10.9267
118 1 -11.9603 25.2092 -11.2594
119 1 -12.205 25.8167 -10.6001
120 1 -11.9325 26.5676 -10.0516
121 1 -12.3266 26.7341 -9.22058
122 1 -12.876 27.4732 -9.00135
123 1 -13.1759 28.3258 -8.85461
124 1 -12.9585 29.1991 -8.43818
125 1 -13.3153 29.0683 -7.5543
126 1 -13.5123 28.7986 -6.73272
127 1 -13.8982 28.4008 -5.98195
128 1 -14.038 28.6768 -5.09632
ITEM: TIMESTEP
1590000
ITEM: NUMBER OF ATOMS
128
ITEM: BOX BOUNDS mm mm mm
-6.4000000000000000e+01 6.4000000000000000e+01
-6.4000000000000000e+01 6.4000000000000000e+01
-6.4000000000000000e+01 6.4000000000000000e+01
ITEM: ATOMS id type x y z
1 1 -9.99374 0.693889 3.32011
2 1 -10.7908 0.305292 3.59209
3 1 -11.6188 -0.154888 3.63321
4 1 -12.4183 -0.612165 3.52501
5 1 -12.8935 -0.193767 4.22436
6 1 -13.4848 0.366442 4.74677
7 1 -13.3795 1.244 5.12377
8 1 -13.1726 1.83984 5.84309
9 1 -13.2175 2.58879 6.41121
10 1 -13.9617 3.25542 6.36417
11 1 -13.9439 3.34872 5.40455
12 1 -13.8928 2.99858 4.50987
13 1 -14.5003 2.5141 3.96053
14 1 -15.1597 2.03495 4.42949
15 1 -15.4159 1.14849 4.76926
16 1 -14.9398 0.309005 4.44044
17 1 -14.6053 0.722655 3.69097
18 1 -14.9635 0.874043 2.84847
19 1 -15.4541 1.5423 2.44633
20 1 -15.6435 2.32386 1.9296
21 1 -16.4343 2.76552 1.70002
22 1 -16.7758 3.63934 1.44306
23 1 -16.589 4.55634 1.59776
24 1 -15.8049 5.10942 1.54614
25 1 -15.4967 5.49357 0.753012
26 1 -15.8679 5.12207 0.0152715
27 1 -16.313 5.52597 -0.697282
28 1 -15.638 5.99906 -1.25016
29 1 -15.943 6.67491 -1.78615
30 1 -15.9565 7.47884 -2.32806
31 1 -15.538 8.16598 -2.86073
32 1 -14.9301 8.83593 -2.71134
33 1 -15.1764 9.52046 -3.32712
34 1 -15.6662 10.2968 -3.16002
35 1 -15.7779 11.0902 -2.61601
36 1 -15.8468 11.6115 -1.82849
37 1 -15.1808 11.8834 -1.25654
38 1 -14.8933 11.4317 -0.457621
39 1 -14.6107 10.6793 -0.0649016
40 1 -14.0706 9.95861 -0.528487
41 1 -13.5312 9.6393 -1.28643
42 1 -12.6646 9.62684 -1.56733
43 1 -12.6562 9.81895 -2.52504
44 1 -12.613 9.62467 -3.42221
45 1 -13.3214 9.01847 -3.63727
46 1 -13.9367 8.41691 -4.09095
47 1 -14.2576 7.60757 -3.85835
48 1 -13.6325 7.16006 -3.25983
49 1 -13.5328 6.63326 -2.46491
50 1 -13.7408 5.88744 -1.86957
51 1 -12.7902 5.76763 -1.86644
52 1 -12.2177 6.48099 -2.16218
53 1 -12.1392 7.13621 -2.8651
54 1 -11.3474 7.02413 -3.44222
55 1 -10.5536 7.55467 -3.46921
56 1 -9.69705 7.99981 -3.45371
57 1 -9.22759 8.57419 -2.95938
58 1 -8.71166 9.15878 -2.39902
59 1 -8.04361 9.80493 -2.63408
60 1 -8.37866 10.4612 -2.01278
61 1 -8.73502 11.201 -1.66689
62 1 -9.29155 11.8786 -1.37012
63 1 -8.84769 12.4697 -1.94477
64 1 -9.28475 13.113 -1.49137
65 1 -10.1403 13.5466 -1.45003
66 1 -10.824 14.1071 -1.79074
67 1 -11.07 14.8952 -2.13327
68 1 -11.5203 15.4461 -2.69271
69 1 -11.9677 15.8778 -3.31845
70 1 -11.9333 16.2607 -4.18093
71 1 -12.5102 16.9914 -4.15935
72 1 -12.7295 17.8077 -3.68072
73 1 -13.0468 18.5799 -4.09738
74 1 -13.0098 19.4967 -4.17574
75 1 -13.3525 20.0314 -4.84632
76 1 -12.4361 20.0719 -4.95008
77 1 -11.5526 20.2471 -5.0158
78 1 -11.9143 20.6988 -4.2394
79 1 -12.105 21.3089 -3.55623
80 1 -12.162 22.1988 -3.3024
81 1 -11.713 22.966 -3.56511
82 1 -12.0995 23.4783 -4.23991
83 1 -12.2049 24.2298 -4.71431
84 1 -12.4354 24.5963 -3.87174
85 1 -11.6208 24.9839 -3.66195
86 1 -10.7403 24.6891 -3.69646
87 1 -9.85284 24.3501 -3.80474
88 1 -9.12344 23.66 -3.9792
89 1 -8.40231 23.7649 -4.59646
90 1 -7.81011 24.002 -3.94617
91 1 -7.18445 23.3657 -3.80022
92 1 -7.14181 22.4414 -3.54203
93 1 -7.14325 22.1034 -2.67783
94 1 -7.36816 21.3176 -2.15229
95 1 -7.83706 20.6772 -1.66106
96 1 -8.45588 21.0879 -0.986198
97 1 -8.30914 21.192 -0.00540026
98 1 -7.61011 21.5621 0.561235
99 1 -7.03752 22.2316 0.273134
100 1 -6.67742 22.9152 0.767855
101 1 -6.59754 23.4119 1.53878
102 1 -6.7141 24.3346 1.68167
103 1 -7.31807 24.8497 1.14167
104 1 -7.90004 25.5441 0.894563
105 1 -8.46312 26.2104 1.16333
106 1 -8.89833 26.9795 1.38588
107 1 -9.73344 27.5018 1.37972
108 1 -9.31611 28.038 0.792569
109 1 -9.15785 28.8165 0.264931
110 1 -8.73973 29.5715 0.0198041
111 1 -7.91521 30.0091 -0.288769
112 1 -7.42562 30.4883 -0.942867
113 1 -7.2926 30.3238 -1.84441
114 1 -7.78605 29.7835 -2.4219
115 1 -8.68816 29.6851 -2.57892
116 1 -9.53546 29.8 -2.94129
117 1 -10.2708 30.061 -3.44117
118 1 -10.9511 30.6935 -3.4077
119 1 -11.4821 31.315 -2.96691
120 1 -12.0357 30.877 -2.3117
121 1 -12.4832 30.282 -1.78405
122 1 -12.1612 29.7603 -2.48771
123 1 -11.4002 29.4436 -2.91948
124 1 -10.8242 29.2744 -2.18281
125 1 -10.098 28.6184 -2.12264
126 1 -9.67634 27.8995 -1.57188
127 1 -8.71923 27.7964 -1.49098
128 1 -7.85586 27.9033 -1.82354
ITEM: TIMESTEP
1600000
ITEM: NUMBER OF ATOMS
128
ITEM: BOX BOUNDS mm mm mm
-6.4000000000000000e+01 6.4000000000000000e+01
-6.4000000000000000e+01 6.4000000000000000e+01
-6.4000000000000000e+01 6.4000000000000000e+01
ITEM: ATOMS id type x y z
1 1 -10.3421 4.03597 7.73202
2 1 -10.8084 4.90773 7.64742
3 1 -11.1277 5.52483 8.36275
4 1 -11.7987 6.15172 8.61151
5 1 -12.6706 5.88088 8.27889
6 1 -13.2939 6.57563 8.42281
7 1 -14.1358 6.63971 8.00672
8 1 -14.1896 5.92879 7.41673
9 1 -14.4358 5.07 7.25644
10 1 -15.1677 5.10827 7.79485
11 1 -15.7817 4.86127 7.12159
12 1 -16.5504 4.50581 6.79503
13 1 -17.4367 4.54278 6.42787
14 1 -17.7279 4.53274 5.5114
15 1 -18.4619 4.49425 4.92928
16 1 -18.3965 5.42755 4.77291
17 1 -19.2797 5.32544 4.41288
18 1 -19.576 6.22267 4.55229
19 1 -20.1354 6.75995 4.02543
20 1 -20.0905 7.73822 3.94475
21 1 -19.6768 8.55912 4.08444
22 1 -19.3736 9.31415 3.63737
23 1 -18.9674 9.57153 2.85047
24 1 -19.4762 9.61431 2.09599
25 1 -19.5596 9.6631 1.13126
26 1 -20.0023 10.4897 0.867589
27 1 -20.4287 10.65 0.111303
28 1 -20.4208 10.4503 -0.819213
29 1 -20.121 10.647 -1.74486
30 1 -20.7129 11.1798 -2.25396
31 1 -21.1241 11.4932 -3.06013
32 1 -21.503 10.7658 -3.42477
33 1 -20.9921 10.1059 -3.02796
34 1 -20.3952 9.46984 -2.80147
35 1 -19.5742 9.13698 -2.47302
36 1 -18.835 9.42565 -3.00283
37 1 -18.2352 10.144 -3.00213
38 1 -17.5298 10.1752 -3.59873
39 1 -16.7008 10.4377 -3.89651
40 1 -16.1409 10.5013 -4.61411
41 1 -15.3602 11.0515 -4.80323
42 1 -14.7089 11.7029 -4.7523
43 1 -13.8766 11.3409 -4.75758
44 1 -13.3758 10.5348 -4.62636
45 1 -12.6808 11.0775 -4.49694
46 1 -11.9965 11.6611 -4.27453
47 1 -12.2405 12.566 -4.10956
48 1 -12.1017 13.5543 -3.97838
49 1 -11.4978 13.7982 -3.29878
50 1 -10.8403 14.4397 -3.50775
51 1 -9.95744 14.7095 -3.36989
52 1 -9.93918 14.6048 -2.40346
53 1 -9.54946 13.9385 -1.88178
54 1 -9.05574 13.1473 -1.5739
55 1 -8.22681 13.4195 -1.92962
56 1 -7.37034 13.7726 -2.02596
57 1 -6.69771 14.4661 -2.37618
58 1 -5.81021 14.7677 -2.44165
59 1 -5.38297 15.6113 -2.15879
60 1 -5.13778 16.3121 -2.68263
61 1 -5.67115 16.6476 -3.37512
62 1 -5.27393 17.3346 -3.90942
63 1 -4.79174 17.2849 -4.693
64 1 -4.48186 18.0408 -5.21831
65 1 -4.70239 17.9488 -6.08509
66 1 -4.80827 17.0464 -5.85341
67 1 -5.59263 16.6775 -5.5504
68 1 -6.55973 16.5827 -5.52941
69 1 -7.24929 16.1815 -5.12167
70 1 -7.88764 16.058 -4.40751
71 1 -8.79076 15.9884 -4.31766
72 1 -9.62846 16.0098 -3.89904
73 1 -10.2718 16.0444 -3.19591
74 1 -10.9378 15.5127 -2.75691
75 1 -11.7568 15.9624 -2.4846
76 1 -12.2729 16.6753 -2.63582
77 1 -12.4749 17.5808 -2.84218
78 1 -12.0217 17.9607 -3.57148
79 1 -11.3755 18.2164 -4.23193
80 1 -10.9936 18.955 -4.68846
81 1 -10.4093 19.6548 -4.88803
82 1 -9.73031 19.5875 -5.49204
83 1 -9.39361 18.6867 -5.52545
84 1 -8.64924 18.6798 -4.94922
85 1 -8.00443 19.0532 -4.37221
86 1 -8.39064 19.9522 -4.36683
87 1 -8.95131 20.7094 -4.57164
88 1 -9.37745 21.5703 -4.61417
89 1 -9.28197 22.4948 -4.37974
90 1 -8.55336 22.8945 -4.87577
91 1 -7.67212 22.9663 -5.0503
92 1 -7.03517 23.7329 -4.88629
93 1 -6.61952 24.4307 -4.46547
94 1 -6.75429 24.596 -3.56702
95 1 -6.85057 24.8217 -2.66807
96 1 -7.59077 24.4522 -2.23473
97 1 -8.48618 24.3879 -2.44902
98 1 -9.11686 24.435 -3.12302
99 1 -8.80233 25.1273 -3.6271
100 1 -8.41449 25.9925 -3.75336
101 1 -7.60078 26.2367 -3.35048
102 1 -7.91654 27.1535 -3.5317
103 1 -8.44753 27.7915 -3.96768
104 1 -8.90941 28.4496 -4.43388
105 1 -9.12353 29.2707 -3.99964
106 1 -10.0288 29.2466 -3.67069
107 1 -10.8487 28.9989 -3.31443
108 1 -11.2768 29.1414 -2.49523
109 1 -11.087 30.1021 -2.47469
110 1 -10.6318 30.4977 -3.16031
111 1 -10.9641 30.5307 -4.00207
112 1 -10.5741 30.4347 -4.83923
113 1 -10.0819 30.7776 -5.49705
114 1 -10.1194 31.7057 -5.46859
115 1 -10.2219 32.6035 -5.20061
116 1 -10.3367 33.0716 -4.41429
117 1 -10.939 32.2896 -4.13462
118 1 -11.7002 32.0991 -3.64743
119 1 -11.5643 31.609 -2.87208
120 1 -11.6729 31.5328 -1.94642
121 1 -11.1782 31.8923 -1.24347
122 1 -11.2339 32.6112 -0.600974
123 1 -11.2356 33.5461 -0.64123
124 1 -10.5275 34.0925 -0.911527
125 1 -9.78316 34.3816 -0.385273
126 1 -9.66837 34.2134 0.532658
127 1 -9.68978 33.4337 1.06275
128 1 -10.3345 32.8076 1.44823
ITEM: TIMESTEP
1610000
ITEM: NUMBER OF ATOMS
128
ITEM: BOX BOUNDS mm mm mm
-6.4000000000000000e+01 6.4000000000000000e+01
-6.4000000000000000e+01 6.4000000000000000e+01
-6.4000000000000000e+01 6.4000000000000000e+01
ITEM: ATOMS id type x y z
1 1 -13.1237 -2.02452 3.25738
2 1 -13.7221 -1.40172 3.65053
3 1 -14.546 -1.01501 3.79097
4 1 -15.1027 -0.517481 4.36322
5 1 -14.9698 0.397341 4.59876
6 1 -14.9021 1.31051 4.70555
7 1 -15.4204 1.8169 5.33495
8 1 -14.5528 2.08321 5.6395
9 1 -13.9741 2.85367 5.67466
10 1 -13.3324 3.28561 6.23041
11 1 -12.7786 3.80592 6.79512
12 1 -13.323 4.42442 6.3627
13 1 -13.8817 5.18418 6.08991
14 1 -14.6065 5.78216 5.98783
15 1 -14.3902 6.60486 6.33714
16 1 -14.2297 7.51088 6.60646
17 1 -14.5259 8.38757 6.4488
18 1 -15.3367 8.38547 6.03895
19 1 -15.9495 7.62934 6.19193
20 1 -16.3165 7.82259 5.32623
21 1 -17.1984 8.02764 4.89309
22 1 -18.0013 8.4459 4.67081
23 1 -18.5415 9.09478 4.94133
24 1 -18.7769 10.0153 5.00901
25 1 -18.2846 10.9033 4.98301
26 1 -17.8067 11.6292 4.63673
27 1 -16.926 11.667 4.52269
28 1 -16.1361 11.9973 4.12858
29 1 -16.3226 12.0993 3.17994
30 1 -16.3302 12.7528 2.42457
31 1 -15.7029 13.0622 1.68072
32 1 -15.5221 12.7543 0.777018
33 1 -14.7322 12.9065 0.261595
34 1 -13.8848 13.2675 0.479662
35 1 -13.2686 13.5294 1.23329
36 1 -13.5016 14.464 1.33659
37 1 -13.0238 14.9005 0.676495
38 1 -12.1448 14.9044 0.316191
39 1 -12.4732 14.7129 -0.558092
40 1 -12.0718 14.2793 -1.382
41 1 -11.8057 14.3474 -2.2331
42 1 -12.3942 14.1262 -2.89317
43 1 -12.5244 15.0755 -2.81804
44 1 -13.4048 14.8961 -2.94658
45 1 -14.2109 15.026 -3.33574
46 1 -14.9785 14.5155 -3.21618
47 1 -14.6706 13.6315 -3.27073
48 1 -14.5915 12.7275 -2.96388
49 1 -14.494 12.0805 -2.28194
50 1 -13.7435 12.0692 -1.72679
51 1 -13.0257 12.2093 -1.14246
52 1 -12.7868 12.5185 -0.273976
53 1 -12.4292 11.7536 0.126977
54 1 -11.6199 11.3518 0.302363
55 1 -10.8441 10.8764 0.112249
56 1 -9.96501 11.1412 -0.070609
57 1 -9.11944 11.4305 -0.339537
58 1 -8.55426 11.7749 -1.0135
59 1 -8.10478 12.5997 -1.13624
60 1 -8.59148 13.2669 -1.61975
61 1 -7.91955 13.6638 -2.0968
62 1 -7.44525 13.9234 -1.34545
63 1 -7.17368 14.8035 -1.47724
64 1 -6.46184 14.4777 -2.03258
65 1 -6.39945 13.8906 -2.78389
66 1 -6.88929 13.7499 -3.56512
67 1 -7.34684 14.0502 -4.33633
68 1 -6.94541 14.7003 -4.96263
69 1 -6.50242 15.5482 -5.26708
70 1 -7.05478 15.9113 -4.59473
71 1 -7.36789 16.7056 -4.29055
72 1 -7.43162 17.6084 -4.12017
73 1 -8.03626 18.0363 -4.70053
74 1 -8.91246 17.7891 -4.92152
75 1 -9.31943 17.0495 -5.40356
76 1 -10.189 16.7984 -5.80065
77 1 -11.0164 16.4861 -5.3594
78 1 -11.8115 16.6133 -4.91959
79 1 -12.0036 15.6935 -4.81613
80 1 -12.6158 15.811 -4.03058
81 1 -12.0542 15.8817 -3.277
82 1 -11.363 15.4967 -2.69871
83 1 -10.5382 15.0859 -2.66931
84 1 -10.1441 15.2837 -1.83091
85 1 -10.4909 16.0154 -1.33428
86 1 -11.0896 16.7451 -1.1153
87 1 -11.5383 17.1884 -1.82628
88 1 -11.8608 17.7172 -2.46507
89 1 -11.5431 18.4745 -3.0065
90 1 -11.1466 19.3621 -2.95123
91 1 -11.4837 20.2297 -2.8869
92 1 -11.1967 21.1401 -3.10994
93 1 -10.9872 22.0005 -3.57708
94 1 -10.509 22.5783 -4.09624
95 1 -9.72664 22.6889 -4.59877
96 1 -8.83639 22.8887 -4.34726
97 1 -8.01183 23.2161 -4.69329
98 1 -7.21092 22.8524 -5.03713
99 1 -6.62488 23.2662 -4.51062
100 1 -5.78432 23.6172 -4.69312
101 1 -5.66847 23.9844 -5.53284
102 1 -5.60409 24.7654 -6.0034
103 1 -6.21101 25.4789 -6.07954
104 1 -5.49353 25.5562 -5.45455
105 1 -5.18954 26.3764 -5.72383
106 1 -5.36171 27.3092 -5.69486
107 1 -6.08607 27.7297 -6.04648
108 1 -6.6852 28.2989 -6.45586
109 1 -7.51258 28.7104 -6.33205
110 1 -8.38118 28.6795 -6.62936
111 1 -9.01632 28.2113 -7.11785
112 1 -9.68783 28.9068 -7.35201
113 1 -10.2217 29.4322 -7.86231
114 1 -10.663 30.1784 -8.29891
115 1 -11.5454 30.4341 -8.08269
116 1 -12.3742 30.4334 -7.69392
117 1 -12.5554 30.8001 -6.86889
118 1 -13.1866 31.0907 -6.31248
119 1 -13.7109 31.8012 -6.00336
120 1 -13.8964 32.1812 -6.80822
121 1 -13.9633 32.9445 -7.41133
122 1 -14.6353 33.6361 -7.41445
123 1 -14.9967 32.7837 -7.52201
124 1 -14.7596 31.8974 -7.21744
125 1 -14.3356 31.036 -7.30279
126 1 -14.7009 30.2325 -7.53937
127 1 -14.881 29.3224 -7.41895
128 1 -14.9432 29.1324 -6.48203
ITEM: TIMESTEP
1620000
ITEM: NUMBER OF ATOMS
128
ITEM: BOX BOUNDS mm mm mm
-6.4000000000000000e+01 6.4000000000000000e+01
-6.4000000000000000e+01 6.4000000000000000e+01
-6.4000000000000000e+01 6.4000000000000000e+01
ITEM: ATOMS id type x y z
1 1 -11.4543 8.83823 8.77974
2 1 -11.2818 8.29117 8.06762
3 1 -10.6773 7.86072 7.55506
4 1 -9.8772 7.40625 7.39453
5 1 -9.21598 6.79322 7.32667
6 1 -8.32986 6.46152 7.25965
7 1 -8.41197 6.97152 6.48191
8 1 -7.86613 7.28292 5.80833
9 1 -8.52636 7.94595 5.80896
10 1 -9.42979 7.6581 5.5845
11 1 -10.2526 7.37261 5.87581
12 1 -10.8619 6.73932 6.08764
13 1 -11.8709 6.8007 6.20237
14 1 -12.3576 7.27433 5.57179
15 1 -13.299 7.50582 5.63139
16 1 -14.1184 7.19125 5.3265
17 1 -14.1376 7.7641 4.57995
18 1 -14.9927 7.59457 5.02744
19 1 -15.8762 7.93048 5.26319
20 1 -15.9959 8.81184 5.31235
21 1 -15.7838 9.75218 5.27962
22 1 -15.9135 9.7056 4.32745
23 1 -15.9811 9.84174 3.38373
24 1 -16.1363 9.40396 2.53635
25 1 -15.2755 9.15392 2.44512
26 1 -15.2143 8.77111 1.56036
27 1 -15.6692 8.3457 0.840967
28 1 -16.4119 8.27064 0.338051
29 1 -17.1187 8.78798 0.766007
30 1 -17.9896 9.08553 0.518352
31 1 -17.6658 9.642 -0.129308
32 1 -17.282 10.3129 -0.733475
33 1 -17.1635 10.8745 -1.41381
34 1 -16.2946 10.6963 -1.75819
35 1 -15.476 10.4023 -1.42895
36 1 -15.6449 10.0085 -0.593621
37 1 -15.7963 10.3861 0.300085
38 1 -16.0876 11.0749 -0.250833
39 1 -15.4139 11.5812 -0.626985
40 1 -14.7126 11.9828 -0.0829052
41 1 -14.2076 12.0914 0.729738
42 1 -13.7427 12.682 1.28642
43 1 -12.9943 13.2505 1.03222
44 1 -12.9178 14.1659 0.701841
45 1 -13.1008 14.2204 -0.22374
46 1 -12.7067 14.0751 -1.01344
47 1 -12.4614 13.4041 -1.60808
48 1 -12.1431 12.8822 -2.28565
49 1 -11.3414 12.964 -2.76858
50 1 -10.4896 12.611 -2.44502
51 1 -9.64807 12.2998 -2.19135
52 1 -8.98529 12.9538 -2.23911
53 1 -8.3457 13.5759 -2.02927
54 1 -7.97466 12.7309 -2.1944
55 1 -7.17639 12.6094 -1.73054
56 1 -6.40614 12.2999 -2.19014
57 1 -5.46967 12.3605 -1.9806
58 1 -4.84274 11.9123 -1.44329
59 1 -5.12362 11.5203 -0.626099
60 1 -5.4497 11.2043 0.215931
61 1 -6.29484 10.99 0.466002
62 1 -7.10589 10.904 0.0613243
63 1 -7.34682 11.0795 -0.827713
64 1 -7.26914 10.9332 -1.79142
65 1 -7.1658 10.7454 -2.71079
66 1 -7.83128 10.712 -3.30658
67 1 -8.42125 11.1345 -3.93925
68 1 -8.18985 11.2947 -4.87847
69 1 -7.61812 11.8029 -5.43962
70 1 -8.24195 12.2529 -5.93202
71 1 -8.57092 12.9813 -6.4343
72 1 -8.91846 13.8018 -6.52966
73 1 -9.28149 14.6083 -6.94779
74 1 -8.38732 14.7144 -7.20351
75 1 -7.76189 15.2307 -7.60008
76 1 -7.31001 16.0414 -7.57219
77 1 -6.89636 16.6839 -7.06
78 1 -6.87373 17.5821 -6.67238
79 1 -7.35411 18.2146 -6.06973
80 1 -7.00135 18.7044 -5.31809
81 1 -6.34639 19.3949 -5.21952
82 1 -5.97095 19.1244 -4.41304
83 1 -5.98549 18.7861 -3.49012
84 1 -6.07701 17.9746 -3.91021
85 1 -5.95554 17.044 -3.76795
86 1 -5.7409 17.005 -2.80677
87 1 -5.91642 17.2572 -1.93234
88 1 -6.77556 17.0229 -1.53686
89 1 -7.23741 17.5318 -0.878959
90 1 -7.79688 18.1452 -0.454468
91 1 -8.31759 18.9011 -0.737273
92 1 -8.61397 19.55 -1.33633
93 1 -8.21325 19.754 -2.20948
94 1 -9.01955 19.8774 -2.64643
95 1 -9.64312 20.3018 -3.20161
96 1 -9.81223 21.1077 -3.57168
97 1 -9.48222 21.2296 -4.45229
98 1 -9.19732 21.6295 -5.25231
99 1 -8.6569 22.3494 -5.59742
100 1 -8.47172 23.1847 -5.8805
101 1 -8.4115 24.1283 -6.00391
102 1 -7.70392 24.5363 -6.48517
103 1 -8.23546 25.174 -6.86491
104 1 -8.33168 25.501 -7.70993
105 1 -8.28736 26.4317 -7.51752
106 1 -7.37296 26.1797 -7.42863
107 1 -7.1332 25.2888 -7.26966
108 1 -6.23159 25.2432 -6.92043
109 1 -5.46352 25.7572 -7.00268
110 1 -5.77137 26.5785 -6.63001
111 1 -5.87741 27.4866 -6.7546
112 1 -6.41719 28.2551 -6.42519
113 1 -5.77663 28.6319 -6.95906
114 1 -5.7441 29.3248 -7.59798
115 1 -5.77039 30.2236 -7.8169
116 1 -6.32241 30.5558 -7.1129
117 1 -6.53914 31.2328 -6.51892
118 1 -7.06442 31.747 -5.93946
119 1 -7.81538 32.1951 -6.37729
120 1 -7.96923 32.8198 -7.09068
121 1 -7.92903 32.7697 -7.99034
122 1 -7.34033 32.2984 -8.55622
123 1 -6.6805 32.0488 -9.16743
124 1 -5.95051 31.7943 -9.7299
125 1 -5.32188 31.2365 -10.2033
126 1 -6.13299 31.3497 -10.6481
127 1 -6.95508 30.9696 -10.4122
128 1 -7.13995 30.0149 -10.2523
ITEM: TIMESTEP
1630000
ITEM: NUMBER OF ATOMS
128
ITEM: BOX BOUNDS mm mm mm
-6.4000000000000000e+01 6.4000000000000000e+01
-6.4000000000000000e+01 6.4000000000000000e+01
-6.4000000000000000e+01 6.4000000000000000e+01
ITEM: ATOMS id type x y z
1 1 -11.7755 13.6296 0.169417
2 1 -11.1969 14.2944 0.516046
3 1 -10.6707 14.9999 0.875218
4 1 -10.4513 14.961 1.82036
5 1 -10.7978 14.7504 2.67021
6 1 -11.6663 15.1677 2.53896
7 1 -12.1461 14.6257 3.10624
8 1 -12.5226 13.882 3.53466
9 1 -12.8588 13.2068 3.00347
10 1 -13.8223 12.989 2.99609
11 1 -14.0584 12.1354 3.40433
12 1 -14.7468 11.477 3.3338
13 1 -15.0712 10.637 3.32361
14 1 -15.3348 9.74812 3.35623
15 1 -15.2276 8.85477 3.26441
16 1 -15.4759 8.08509 3.81578