ITEM: TIMESTEP
2370000
ITEM: NUMBER OF ATOMS
128
ITEM: BOX BOUNDS mm mm mm
-6.4000000000000000e+01 6.4000000000000000e+01
-6.4000000000000000e+01 6.4000000000000000e+01
-6.4000000000000000e+01 6.4000000000000000e+01
ITEM: ATOMS id type x y z
1 1 -32.7098 9.34478 28.9066
2 1 -32.3281 9.64218 28.0952
3 1 -32.0016 10.0658 27.3309
4 1 -31.6265 10.4673 26.5958
5 1 -31.1325 10.8615 25.861
6 1 -30.6022 11.2571 25.1358
7 1 -30.1474 11.6746 24.4393
8 1 -29.7202 12.1023 23.735
9 1 -29.2823 12.5719 23.0529
10 1 -28.855 13.0665 22.3848
11 1 -28.3473 13.6599 21.8198
12 1 -27.8995 14.1751 21.1942
13 1 -27.4825 14.7994 20.6287
14 1 -27.1784 15.4938 20.128
15 1 -26.7961 16.1507 19.5595
16 1 -26.4465 16.7558 18.847
17 1 -26.1209 17.2609 18.0907
18 1 -25.8287 17.7555 17.3172
19 1 -25.3974 18.1949 16.5823
20 1 -24.9722 18.5529 15.8328
21 1 -24.475 18.8435 15.0734
22 1 -23.9982 19.3225 14.42
23 1 -23.4584 19.7481 13.7147
24 1 -22.9276 20.1213 13.0092
25 1 -22.4465 20.3915 12.3115
26 1 -21.9772 20.7654 11.5914
27 1 -21.6307 21.0742 10.7656
28 1 -21.358 21.3754 9.95353
29 1 -21.0019 21.6335 9.12192
30 1 -20.5452 21.8836 8.3131
31 1 -20.0977 22.1639 7.55099
32 1 -19.6554 22.4826 6.72218
33 1 -19.2381 22.8135 5.94818
34 1 -18.7243 23.2014 5.22226
35 1 -18.2863 23.657 4.48083
36 1 -17.7689 24.1147 3.7911
37 1 -17.4286 24.6885 3.13109
38 1 -17.0205 25.2762 2.56505
39 1 -16.4821 25.8014 1.98589
40 1 -15.9218 26.2272 1.36819
41 1 -15.4211 26.6315 0.707225
42 1 -14.9464 27.0375 0.0243246
43 1 -14.4251 27.4755 -0.691847
44 1 -13.8132 27.9638 -1.2929
45 1 -13.3867 28.5105 -1.88562
46 1 -12.9539 29.0478 -2.55166
47 1 -12.4271 29.597 -3.15328
48 1 -11.9585 30.0925 -3.77009
49 1 -11.3383 30.577 -4.28098
50 1 -10.6971 31.0253 -4.84372
51 1 -10.0471 31.3553 -5.43845
52 1 -9.48563 31.5462 -6.16072
53 1 -8.85124 31.7108 -6.80209
54 1 -8.19198 31.9318 -7.47412
55 1 -7.46919 32.0901 -8.08588
56 1 -6.74753 32.178 -8.70591
57 1 -6.12126 32.0074 -9.34409
58 1 -5.49933 31.7491 -10.0498
59 1 -4.91024 31.5144 -10.7243
60 1 -4.29719 31.2773 -11.3901
61 1 -3.52454 31.0142 -11.8377
62 1 -2.73155 30.7152 -12.241
63 1 -1.97624 30.2666 -12.4732
64 1 -1.19301 29.8099 -12.8129
65 1 -0.474686 29.2462 -13.1401
66 1 0.241411 28.6753 -13.4651
67 1 0.869001 28.0734 -13.8964
68 1 1.30873 27.3056 -14.1421
69 1 1.78049 26.4808 -14.4164
70 1 2.07817 25.5858 -14.6194
71 1 2.39995 24.718 -14.8245
72 1 2.65334 23.8089 -14.9743
73 1 3.05538 22.9807 -15.0272
74 1 3.57188 22.1242 -14.8401
75 1 3.96414 21.3129 -14.6424
76 1 4.31044 20.4785 -14.4457
77 1 4.54856 19.5868 -14.2658
78 1 4.77152 18.7627 -13.8698
79 1 5.0316 17.9738 -13.3615
80 1 5.19798 17.2184 -12.7502
81 1 5.24001 16.4857 -12.1807
82 1 5.30399 15.7574 -11.5911
83 1 5.36573 15.0386 -11.0152
84 1 5.46638 14.2065 -10.5538
85 1 5.50109 13.2993 -10.1906
86 1 5.43712 12.4109 -9.82754
87 1 5.42545 11.532 -9.59521
88 1 5.41159 10.6712 -9.29616
89 1 5.31039 9.70515 -8.99797
90 1 5.14422 8.83775 -8.59921
91 1 4.935 8.05397 -8.23197
92 1 4.62096 7.30472 -7.83634
93 1 4.25845 6.52681 -7.39137
94 1 3.90535 5.74283 -6.85228
95 1 3.54498 5.07427 -6.34224
96 1 3.14076 4.41242 -5.80214
97 1 2.71704 3.77469 -5.32679
98 1 2.31747 3.13642 -4.78434
99 1 1.84699 2.55061 -4.22137
100 1 1.43155 1.84565 -3.76531
101 1 0.999455 1.19841 -3.27532
102 1 0.656198 0.502712 -2.77331
103 1 0.349237 -0.145774 -2.17311
104 1 0.0387067 -0.720544 -1.52971
105 1 -0.297929 -1.45607 -0.967803
106 1 -0.54355 -2.13757 -0.360453
107 1 -0.766264 -2.79738 0.293222
108 1 -0.939832 -3.35891 1.0394
109 1 -1.27256 -3.93855 1.67418
110 1 -1.67004 -4.50163 2.22206
111 1 -2.04607 -5.16355 2.83262
112 1 -2.35894 -5.84739 3.3653
113 1 -2.68639 -6.56016 3.8859
114 1 -3.07172 -7.2106 4.3942
115 1 -3.42699 -7.93097 4.93271
116 1 -3.72871 -8.60548 5.46866
117 1 -3.8915 -9.27241 6.06533
118 1 -3.87597 -10.0346 6.60787
119 1 -3.90774 -10.7859 7.09499
120 1 -4.02292 -11.592 7.59575
121 1 -4.09134 -12.3577 8.1626
122 1 -3.95795 -13.0482 8.79155
123 1 -3.74745 -13.6608 9.46844
124 1 -3.4399 -14.2372 10.1683
125 1 -3.16467 -14.7991 10.8826
126 1 -2.97903 -15.4104 11.5927
127 1 -2.80163 -15.9397 12.3319
128 1 -2.60487 -16.4975 13.032
ITEM: TIMESTEP
2380000
ITEM: NUMBER OF ATOMS
128
ITEM: BOX BOUNDS mm mm mm
-6.4000000000000000e+01 6.4000000000000000e+01
-6.4000000000000000e+01 6.4000000000000000e+01
-6.4000000000000000e+01 6.4000000000000000e+01
ITEM: ATOMS id type x y z
1 1 -33.7643 16.2618 30.7726
2 1 -33.069 16.4063 30.1168
3 1 -32.3226 16.6036 29.4848
4 1 -31.7162 16.7387 28.8014
5 1 -31.0925 16.8056 28.0825
6 1 -30.3695 16.8635 27.4928
7 1 -29.7211 16.8495 26.8218
8 1 -29.0995 16.8513 26.1688
9 1 -28.41 16.7962 25.5236
10 1 -27.7886 16.6466 24.8439
11 1 -27.221 16.436 24.0945
12 1 -26.6259 16.2898 23.4108
13 1 -26.0059 16.1598 22.7216
14 1 -25.3056 15.9886 22.1055
15 1 -24.6041 15.8284 21.5188
16 1 -23.9084 15.7098 20.896
17 1 -23.1372 15.6066 20.4201
18 1 -22.3166 15.7512 19.9622
19 1 -21.5434 15.9179 19.484
20 1 -20.8596 16.1937 18.8579
21 1 -20.3314 16.4522 18.1324
22 1 -19.9098 16.8685 17.3995
23 1 -19.5463 17.3819 16.7102
24 1 -19.2782 17.9793 16.0568
25 1 -19.0406 18.5201 15.3065
26 1 -18.9094 19.0388 14.5376
27 1 -18.6889 19.6321 13.835
28 1 -18.3982 20.0309 13.0604
29 1 -18.1202 20.5324 12.3277
30 1 -17.8382 20.9948 11.5509
31 1 -17.4783 21.5108 10.8503
32 1 -17.1769 21.986 10.1263
33 1 -16.8385 22.4257 9.40628
34 1 -16.4541 22.9159 8.69514
35 1 -16.0377 23.4785 7.99408
36 1 -15.5181 24.0552 7.42118
37 1 -15.1726 24.7388 6.871
38 1 -14.753 25.4838 6.38134
39 1 -14.4176 26.1467 5.80441
40 1 -14.0374 26.8929 5.28529
41 1 -13.6564 27.5997 4.75298
42 1 -13.1572 28.2671 4.30541
43 1 -12.66 28.9018 3.73162
44 1 -12.1019 29.3565 3.07481
45 1 -11.4735 29.6684 2.37349
46 1 -10.8161 29.9626 1.69523
47 1 -10.1866 30.2249 1.02491
48 1 -9.58644 30.5409 0.417566
49 1 -8.93217 30.926 -0.184407
50 1 -8.24698 31.2722 -0.731908
51 1 -7.6065 31.5407 -1.34986
52 1 -7.03467 31.8635 -2.02279
53 1 -6.49053 32.0765 -2.78328
54 1 -5.86557 32.2462 -3.45616
55 1 -5.25371 32.5215 -4.061
56 1 -4.68132 32.735 -4.71167
57 1 -4.02328 32.8852 -5.41393
58 1 -3.40773 32.7952 -6.12799
59 1 -2.83577 32.5319 -6.88376
60 1 -2.37276 32.1918 -7.68234
61 1 -1.89877 31.9476 -8.43827
62 1 -1.39016 31.5636 -9.09515
63 1 -0.87732 31.0397 -9.73896
64 1 -0.384944 30.6118 -10.4285
65 1 0.0528542 30.1947 -11.1325
66 1 0.542138 29.6504 -11.6985
67 1 1.15527 29.1018 -12.1903
68 1 1.6999 28.4065 -12.6051
69 1 2.25449 27.6614 -12.8029
70 1 2.82694 26.919 -12.9601
71 1 3.26564 26.1124 -12.898
72 1 3.56655 25.2523 -12.8664
73 1 3.82504 24.3769 -12.716
74 1 3.8875 23.4338 -12.6491
75 1 3.76949 22.5245 -12.4134
76 1 3.63183 21.6399 -12.19
77 1 3.6312 20.6811 -12.028
78 1 3.67627 19.7599 -11.7874
79 1 3.68887 18.8564 -11.6513
80 1 3.73791 17.9464 -11.5037
81 1 3.64706 16.999 -11.3394
82 1 3.5079 16.0998 -11.1173
83 1 3.31954 15.2981 -10.8203
84 1 3.19039 14.3827 -10.4888
85 1 2.87557 13.5257 -10.247
86 1 2.49139 12.6552 -10.0499
87 1 2.11185 11.8986 -9.67979
88 1 1.7275 11.0829 -9.30448
89 1 1.36058 10.3129 -8.88001
90 1 0.996063 9.49351 -8.39573
91 1 0.735041 8.69314 -8.07095
92 1 0.383882 7.88655 -7.6811
93 1 -0.0114415 7.11366 -7.34346
94 1 -0.385079 6.28304 -6.94502
95 1 -0.628565 5.53239 -6.41559
96 1 -0.867467 4.8034 -5.84046
97 1 -1.15142 4.13988 -5.23157
98 1 -1.53354 3.53993 -4.59205
99 1 -1.98874 3.00137 -3.98256
100 1 -2.40232 2.40125 -3.33721
101 1 -2.78133 1.85416 -2.68238
102 1 -3.01862 1.18763 -2.01504
103 1 -3.27883 0.454281 -1.46263
104 1 -3.55972 -0.241313 -0.900753
105 1 -3.75465 -0.996581 -0.286341
106 1 -4.03554 -1.65502 0.305178
107 1 -4.35606 -2.28511 0.897692
108 1 -4.58314 -2.8622 1.5731
109 1 -4.7247 -3.46155 2.36629
110 1 -4.83326 -4.09652 3.05622
111 1 -4.95682 -4.58259 3.86652
112 1 -4.91185 -5.24134 4.48948
113 1 -4.91011 -6.00109 5.09623
114 1 -4.79689 -6.61923 5.8147
115 1 -4.81085 -7.278 6.51202
116 1 -4.61095 -7.88375 7.20845
117 1 -4.41865 -8.54066 7.85376
118 1 -4.26229 -9.26632 8.41414
119 1 -3.99812 -9.96487 8.98781
120 1 -3.76577 -10.675 9.52847
121 1 -3.52205 -11.3926 10.1615
122 1 -3.35027 -12.0935 10.8463
123 1 -3.25358 -12.9021 11.338
124 1 -3.29787 -13.6751 11.7636
125 1 -3.2587 -14.4901 12.1341
126 1 -3.30938 -15.4433 12.4372
127 1 -3.40459 -16.4083 12.6329
128 1 -3.44171 -17.2739 12.9343
ITEM: TIMESTEP
2390000
ITEM: NUMBER OF ATOMS
128
ITEM: BOX BOUNDS mm mm mm
-6.4000000000000000e+01 6.4000000000000000e+01
-6.4000000000000000e+01 6.4000000000000000e+01
-6.4000000000000000e+01 6.4000000000000000e+01
ITEM: ATOMS id type x y z
1 1 -25.0715 20.035 37.323
2 1 -25.0359 19.6921 36.4431
3 1 -24.8949 19.318 35.5683
4 1 -24.8334 19.0184 34.6319
5 1 -24.879 18.7344 33.7241
6 1 -25.0259 18.5622 32.8442
7 1 -25.1182 18.4567 31.881
8 1 -25.1549 18.4579 30.962
9 1 -25.3416 18.3379 30.0054
10 1 -25.4358 18.2542 29.0761
11 1 -25.4792 18.1727 28.1116
12 1 -25.5839 18.1025 27.2247
13 1 -25.6438 18.1277 26.2587
14 1 -25.5874 18.1579 25.3171
15 1 -25.3858 18.1699 24.4101
16 1 -25.2576 18.1804 23.4976
17 1 -25.2631 18.2622 22.5721
18 1 -25.2579 18.3972 21.6372
19 1 -25.1043 18.6193 20.7447
20 1 -24.8403 18.8221 19.8231
21 1 -24.5499 19.0809 18.9743
22 1 -24.2796 19.5537 18.2136
23 1 -23.9373 20.0291 17.4362
24 1 -23.6617 20.4856 16.6249
25 1 -23.3065 21.0054 15.9382
26 1 -22.8557 21.6003 15.3216
27 1 -22.4387 22.2122 14.7579
28 1 -22.0659 22.8461 14.2135
29 1 -21.583 23.456 13.7629
30 1 -21.0795 24.0727 13.2685
31 1 -20.6248 24.763 12.7441
32 1 -20.1456 25.4459 12.306
33 1 -19.6675 26.1034 11.9154
34 1 -19.0682 26.5668 11.379
35 1 -18.4944 27.0913 10.9135
36 1 -17.7937 27.6259 10.4951
37 1 -17.0665 27.9804 10.0976
38 1 -16.3413 28.3304 9.63866
39 1 -15.6881 28.6578 9.12021
40 1 -14.9992 29.0123 8.59153
41 1 -14.3633 29.4568 8.04538
42 1 -13.6543 29.8421 7.49659
43 1 -13.0765 30.2455 6.95539
44 1 -12.5371 30.635 6.26966
45 1 -12.1309 30.9467 5.47285
46 1 -11.6869 31.1894 4.66589
47 1 -11.2104 31.4246 3.86833
48 1 -10.7399 31.6146 3.06346
49 1 -10.2328 31.7163 2.27105
50 1 -9.71292 31.8026 1.48364
51 1 -9.18982 31.8912 0.750921
52 1 -8.6925 32.0717 0.00395537
53 1 -8.21346 32.3275 -0.78135
54 1 -7.67912 32.5135 -1.52867
55 1 -7.11664 32.6609 -2.2372
56 1 -6.44505 32.8275 -2.85513
57 1 -5.68722 32.8732 -3.44824
58 1 -4.94352 32.905 -4.06874
59 1 -4.16836 32.8199 -4.59153
60 1 -3.47847 32.6742 -5.16164
61 1 -2.84461 32.3629 -5.74252
62 1 -2.15709 32.0052 -6.304
63 1 -1.46688 31.7491 -6.84182
64 1 -0.881084 31.4005 -7.50882
65 1 -0.311761 30.9052 -8.11336
66 1 0.266752 30.3106 -8.5961
67 1 0.769908 29.6437 -8.98444
68 1 1.25021 28.9063 -9.4128
69 1 1.80783 28.1902 -9.76405
70 1 2.27159 27.4092 -9.94995
71 1 2.6502 26.5544 -10.1747
72 1 2.99919 25.7176 -10.4122
73 1 3.44949 24.9043 -10.6428
74 1 3.76281 24.0179 -10.7472
75 1 3.97376 23.1201 -10.7015
76 1 4.11183 22.2012 -10.6843
77 1 4.34173 21.287 -10.6134
78 1 4.52826 20.407 -10.5052
79 1 4.7225 19.4644 -10.3063
80 1 4.88624 18.5425 -10.2048
81 1 4.99393 17.6225 -10.1632
82 1 4.90428 16.6823 -10.089
83 1 4.77697 15.7316 -10.1134
84 1 4.72867 14.7998 -10.1077
85 1 4.70242 13.8439 -10.1131
86 1 4.81603 12.9276 -10.0667
87 1 4.7151 11.9946 -9.92474
88 1 4.4949 11.0821 -9.75942
89 1 4.13972 10.2576 -9.59315
90 1 3.72035 9.38084 -9.40526
91 1 3.28905 8.61456 -9.16689
92 1 3.01059 7.79825 -8.82538
93 1 2.63762 7.02516 -8.40918
94 1 2.47039 6.27033 -7.90338
95 1 2.41352 5.49292 -7.37871
96 1 2.26171 4.80764 -6.80101
97 1 2.11936 4.07838 -6.26431
98 1 2.08146 3.37514 -5.61274
99 1 1.80388 2.69816 -4.96183
100 1 1.50448 2.16572 -4.25672
101 1 1.12025 1.61746 -3.57599
102 1 0.74547 1.02401 -2.99461
103 1 0.354153 0.384947 -2.37391
104 1 0.00772589 -0.29956 -1.80193
105 1 -0.417518 -1.05566 -1.26017
106 1 -0.722261 -1.79254 -0.730317
107 1 -0.938516 -2.4926 -0.0480207
108 1 -1.09405 -2.99311 0.706491
109 1 -1.2003 -3.47323 1.52742
110 1 -1.35708 -4.03393 2.23841
111 1 -1.58485 -4.56002 2.89008
112 1 -1.90051 -5.16482 3.52576
113 1 -2.19696 -5.84969 4.129
114 1 -2.36741 -6.5668 4.65301
115 1 -2.72704 -7.21994 5.26835
116 1 -3.00829 -7.89491 5.94103
117 1 -3.30802 -8.53211 6.57044
118 1 -3.56068 -9.11857 7.28442
119 1 -3.79687 -9.67606 7.99119
120 1 -4.04645 -10.2393 8.68155
121 1 -4.34401 -10.8194 9.36225
122 1 -4.5499 -11.4911 10.0221
123 1 -4.72283 -12.0821 10.7135
124 1 -4.91829 -12.754 11.2874
125 1 -5.28706 -13.3842 11.9225
126 1 -5.64906 -14.0846 12.5124
127 1 -6.0041 -14.8037 13.0773
128 1 -6.37985 -15.4102 13.7132
ITEM: TIMESTEP
2400000
ITEM: NUMBER OF ATOMS
128
ITEM: BOX BOUNDS mm mm mm
-6.4000000000000000e+01 6.4000000000000000e+01
-6.4000000000000000e+01 6.4000000000000000e+01
-6.4000000000000000e+01 6.4000000000000000e+01
ITEM: ATOMS id type x y z
1 1 -34.063 20.6215 36.1262
2 1 -33.5643 20.6184 35.3712
3 1 -33.0057 20.4798 34.5759
4 1 -32.5473 20.4003 33.7766
5 1 -32.1447 20.2601 32.9149
6 1 -31.7576 20.2346 32.0812
7 1 -31.3509 20.1075 31.2611
8 1 -30.8556 20.0422 30.4492
9 1 -30.3856 19.9539 29.6822
10 1 -29.9695 19.9585 28.8119
11 1 -29.5628 19.9403 27.9534
12 1 -29.1764 20.0359 27.091
13 1 -28.7089 20.1519 26.2512
14 1 -28.3181 20.2817 25.3962
15 1 -27.9245 20.4691 24.5506
16 1 -27.44 20.619 23.7034
17 1 -26.9435 20.7362 22.8705
18 1 -26.4544 20.8533 22.0816
19 1 -26.054 21.0056 21.2679
20 1 -25.7626 21.2386 20.417
21 1 -25.3099 21.4028 19.5874
22 1 -24.883 21.5973 18.7484
23 1 -24.544 21.9124 17.9538
24 1 -24.3257 22.2226 17.0809
25 1 -24.1642 22.3725 16.2089
26 1 -23.9645 22.5994 15.2741
27 1 -23.7761 22.9802 14.4708
28 1 -23.5039 23.3784 13.6275
29 1 -23.2417 23.7411 12.7962
30 1 -23.0185 24.1509 11.9882
31 1 -22.7295 24.5311 11.1825
32 1 -22.3579 24.9962 10.488
33 1 -21.9872 25.5187 9.77277
34 1 -21.5116 25.9858 9.09246
35 1 -21.0026 26.452 8.46145
36 1 -20.4638 26.949 7.86911
37 1 -19.8096 27.5332 7.359
38 1 -19.2508 28.1659 6.98325
39 1 -18.7205 28.8191 6.63058
40 1 -18.1168 29.4274 6.35822
41 1 -17.4377 30.0488 6.04914
42 1 -16.7744 30.5897 5.79589
43 1 -16.0556 31.142 5.52052
44 1 -15.4341 31.678 5.1195
45 1 -14.7438 32.2055 4.7346
46 1 -14.1194 32.7099 4.33391
47 1 -13.5408 33.2405 3.71611
48 1 -13.0036 33.7447 3.05874
49 1 -12.4282 34.2096 2.46066
50 1 -11.923 34.5519 1.76885
51 1 -11.3726 34.8686 1.0738
52 1 -10.792 35.1596 0.362253
53 1 -10.1395 35.3376 -0.324728
54 1 -9.49788 35.3984 -1.01127
55 1 -8.73994 35.4027 -1.59934
56 1 -8.02717 35.4526 -2.24807
57 1 -7.24371 35.3666 -2.80297
58 1 -6.52127 35.1152 -3.33267
59 1 -5.68108 34.8113 -3.73046
60 1 -4.93016 34.4135 -4.11355
61 1 -4.22837 33.9207 -4.4214
62 1 -3.52769 33.3603 -4.74259
63 1 -2.75713 32.8746 -5.12099
64 1 -2.04115 32.4192 -5.5028
65 1 -1.3581 31.9636 -6.0469
66 1 -0.851896 31.2986 -6.53693
67 1 -0.358451 30.5345 -6.7652
68 1 0.157657 29.7336 -6.91157
69 1 0.587436 28.9125 -7.05391
70 1 0.908062 28.0753 -7.12403
71 1 1.35895 27.209 -7.01278
72 1 1.70817 26.3582 -6.89422
73 1 2.11229 25.4871 -6.81881
74 1 2.40723 24.5613 -6.79341
75 1 2.64267 23.6561 -6.69106
76 1 3.06096 22.809 -6.56482
77 1 3.38499 21.8965 -6.49266
78 1 3.71361 21.0212 -6.47913
79 1 4.01749 20.0987 -6.49715
80 1 4.40162 19.238 -6.3924
81 1 4.60052 18.3124 -6.35355
82 1 4.73043 17.3791 -6.2567
83 1 4.81989 16.4343 -6.14701
84 1 4.89537 15.4929 -6.07498
85 1 4.79413 14.5212 -6.00847
86 1 4.67817 13.6307 -5.91541
87 1 4.41928 12.743 -5.78194
88 1 4.07241 11.9151 -5.63109
89 1 3.814 11.0065 -5.47494
90 1 3.61679 10.1094 -5.32612
91 1 3.54564 9.21427 -5.04053
92 1 3.32132 8.29461 -4.80873
93 1 3.14195 7.39119 -4.57847
94 1 3.07067 6.4557 -4.26004
95 1 2.91802 5.5476 -3.96931
96 1 2.72896 4.64226 -3.62889
97 1 2.54631 3.75782 -3.37364
98 1 2.30069 2.85472 -3.06384
99 1 2.08435 2.00297 -2.71174
100 1 1.86034 1.14432 -2.34623
101 1 1.59211 0.371162 -1.97415
102 1 1.3099 -0.384977 -1.49101
103 1 0.923047 -1.12083 -1.00438
104 1 0.54616 -1.67803 -0.394881
105 1 0.10552 -2.18495 0.232841
106 1 -0.335021 -2.71907 0.932044
107 1 -0.721735 -3.36588 1.60058
108 1 -1.10399 -4.03522 2.17973
109 1 -1.44857 -4.79279 2.62298
110 1 -1.74235 -5.49962 3.20601
111 1 -2.06837 -6.17042 3.85479
112 1 -2.31917 -6.89368 4.39648
113 1 -2.43969 -7.59394 4.99698
114 1 -2.5365 -8.18301 5.73911
115 1 -2.59541 -8.70722 6.54657
116 1 -2.50261 -9.25098 7.33118
117 1 -2.47928 -9.65068 8.14013
118 1 -2.37105 -10.1848 8.91795
119 1 -2.32752 -10.7535 9.6839
120 1 -2.15602 -11.232 10.4525
121 1 -2.00115 -11.8084 11.1888
122 1 -1.86066 -12.3401 11.9483
123 1 -1.71748 -12.9398 12.6581
124 1 -1.51949 -13.508 13.3577
125 1 -1.53477 -14.1916 14.025
126 1 -1.39528 -14.8476 14.6394
127 1 -1.32066 -15.3825 15.4135
128 1 -1.22621 -16.0337 16.0743
ITEM: TIMESTEP
2410000
ITEM: NUMBER OF ATOMS
128
ITEM: BOX BOUNDS mm mm mm
-6.4000000000000000e+01 6.4000000000000000e+01
-6.4000000000000000e+01 6.4000000000000000e+01
-6.4000000000000000e+01 6.4000000000000000e+01
ITEM: ATOMS id type x y z
1 1 -39.2122 23.998 33.3901
2 1 -38.5762 24.1647 32.7032
3 1 -37.8197 24.1651 32.0807
4 1 -37.1037 24.0757 31.4688
5 1 -36.3805 23.9795 30.8965
6 1 -35.7058 23.9442 30.2184
7 1 -35.1495 23.869 29.4889
8 1 -34.6087 23.8072 28.7133
9 1 -33.9984 23.7078 27.9419
10 1 -33.3412 23.7433 27.2434
11 1 -32.7556 23.7927 26.4563
12 1 -32.1848 23.8891 25.7392
13 1 -31.5628 24.0734 25.0489
14 1 -31.109 24.1136 24.2035
15 1 -30.6426 24.2098 23.3909
16 1 -30.1849 24.3954 22.5728
17 1 -29.7382 24.5204 21.7243
18 1 -29.3369 24.6017 20.9028
19 1 -28.8411 24.6931 20.1354
20 1 -28.2503 24.667 19.3001
21 1 -27.6888 24.5691 18.5135
22 1 -27.1232 24.6709 17.7893
23 1 -26.577 24.7907 17.0742
24 1 -25.9203 24.8832 16.37
25 1 -25.3676 25.0275 15.627
26 1 -24.7374 25.2165 14.9182
27 1 -24.2221 25.4437 14.212
28 1 -23.6376 25.6735 13.4833
29 1 -23.0121 25.8072 12.7739
30 1 -22.377 25.7899 12.0809
31 1 -21.7938 25.7067 11.4097
32 1 -21.1229 25.6606 10.7386
33 1 -20.4514 25.5239 10.0844
34 1 -19.7612 25.4911 9.45228
35 1 -18.9874 25.5888 8.8762
36 1 -18.2814 25.8747 8.30771
37 1 -17.6191 26.1647 7.70425
38 1 -17.0703 26.2656 6.9243
39 1 -16.5679 26.6054 6.14777
40 1 -16.1496 26.9659 5.46729
41 1 -15.7495 27.4067 4.71987
42 1 -15.2841 27.836 3.97325
43 1 -14.7661 28.2773 3.29374
44 1 -14.2411 28.789 2.69032
45 1 -13.702 29.21 2.05936
46 1 -13.1209 29.6993 1.54288
47 1 -12.4842 30.1052 1.02768
48 1 -11.796 30.5358 0.469166
49 1 -11.1565 30.9226 -0.0729456
50 1 -10.4996 31.3607 -0.580847
51 1 -9.70405 31.7468 -0.982083
52 1 -8.8298 32.0253 -1.38285
53 1 -8.00446 32.3222 -1.64863
54 1 -7.09425 32.6082 -1.86235
55 1 -6.14247 32.7366 -2.17856
56 1 -5.3005 32.889 -2.52777
57 1 -4.47477 32.9976 -2.93319
58 1 -3.60383 33.1185 -3.33707
59 1 -2.72211 33.0825 -3.69586
60 1 -1.89804 32.9451 -4.02258
61 1 -0.973819 32.7434 -4.23574
62 1 -0.0249557 32.5992 -4.3936
63 1 0.918671 32.4219 -4.56253
64 1 1.77696 32.2169 -4.75783
65 1 2.63651 31.8398 -5.05323
66 1 3.40302 31.411 -5.37015
67 1 4.0689 30.9058 -5.83887
68 1 4.61664 30.2588 -6.21807
69 1 5.0543 29.4915 -6.50783
70 1 5.46681 28.6551 -6.69758
71 1 5.74337 27.7402 -6.83686
72 1 5.92599 26.8382 -6.89476
73 1 6.01792 25.9055 -7.04621
74 1 6.11404 24.9165 -7.22379
75 1 6.21065 23.9178 -7.31433
76 1 6.34365 22.9583 -7.49613
77 1 6.40535 21.9806 -7.67159
78 1 6.44709 21.0775 -7.81987
79 1 6.4865 20.1565 -7.92075
80 1 6.52714 19.2232 -7.89773
81 1 6.62501 18.2879 -7.77519
82 1 6.71217 17.3417 -7.68911
83 1 6.93225 16.4141 -7.64096
84 1 7.15935 15.5433 -7.476
85 1 7.34323 14.6603 -7.23755
86 1 7.43917 13.8046 -6.94265
87 1 7.59669 12.8994 -6.75428
88 1 7.76915 11.9926 -6.41207
89 1 7.89334 11.0814 -6.06417
90 1 8.02621 10.234 -5.67853
91 1 8.15637 9.40691 -5.3083
92 1 8.1594 8.48197 -5.012
93 1 8.20468 7.58596 -4.68542
94 1 8.21075 6.72586 -4.3637
95 1 8.15237 5.86487 -4.03326
96 1 7.97803 5.01532 -3.6261
97 1 7.82656 4.18889 -3.34457
98 1 7.6962 3.22544 -3.10247
99 1 7.4575 2.35974 -2.80502
100 1 7.05141 1.63193 -2.42408
101 1 6.69574 0.897447 -1.96539
102 1 6.32089 0.159911 -1.53562
103 1 5.97027 -0.529707 -0.980846
104 1 5.545 -1.16967 -0.36545
105 1 5.10996 -1.79482 0.20443
106 1 4.75125 -2.48196 0.742403
107 1 4.29209 -3.22067 1.22718
108 1 3.77752 -3.90757 1.70242
109 1 3.2468 -4.5539 2.16798
110 1 2.81068 -5.35979 2.57252
111 1 2.48539 -6.1687 2.94754
112 1 2.28899 -6.99989 3.41619
113 1 2.0628 -7.81393 3.88458
114 1 1.76349 -8.56868 4.33236
115 1 1.44514 -9.28587 4.75775
116 1 1.03968 -9.98182 5.282
117 1 0.529269 -10.7634 5.65734
118 1 0.0644668 -11.4447 6.02873
119 1 -0.487444 -12.0984 6.38149
120 1 -1.01896 -12.7445 6.83289
121 1 -1.52696 -13.3235 7.34393
122 1 -1.98327 -13.9966 7.7843
123 1 -2.28732 -14.6446 8.40313
124 1 -2.37227 -15.3617 8.98158
125 1 -2.36246 -16.1457 9.51978
126 1 -2.34782 -16.8723 10.125
127 1 -2.3652 -17.586 10.6918
128 1 -2.2443 -18.2786 11.2859
ITEM: TIMESTEP
2420000
ITEM: NUMBER OF ATOMS
128
ITEM: BOX BOUNDS mm mm mm
-6.4000000000000000e+01 6.4000000000000000e+01
-6.4000000000000000e+01 6.4000000000000000e+01
-6.4000000000000000e+01 6.4000000000000000e+01
ITEM: ATOMS id type x y z
1 1 -43.4471 18.8955 26.7449
2 1 -42.5397 18.7953 26.6088
3 1 -41.63 18.7406 26.3634
4 1 -40.7306 18.711 26.135
5 1 -39.8482 18.7269 25.8426
6 1 -38.9908 18.8797 25.4727
7 1 -38.1763 18.9995 25.0669
8 1 -37.3873 19.0534 24.5951
9 1 -36.6463 19.136 24.0119
10 1 -36.0488 19.2132 23.3227
11 1 -35.4982 19.3317 22.5672
12 1 -34.8596 19.5156 21.784
13 1 -34.3033 19.6745 20.9944
14 1 -33.7673 19.93 20.271
15 1 -33.2735 20.359 19.6107
16 1 -32.6938 20.7813 19.0045
17 1 -32.0281 21.2555 18.432
18 1 -31.3686 21.6473 17.9105
19 1 -30.7016 22.0675 17.303
20 1 -30.1101 22.4398 16.7226
21 1 -29.5869 22.8486 16.0587
22 1 -29.1174 23.2615 15.4032
23 1 -28.6423 23.8138 14.6856
24 1 -28.3163 24.3414 14.0174
25 1 -27.9571 24.8041 13.2788
26 1 -27.5569 25.4024 12.5946
27 1 -27.1544 25.9735 12.0209
28 1 -26.8033 26.7058 11.4625
29 1 -26.2686 27.3277 10.8804
30 1 -25.649 27.9322 10.4524
31 1 -25.0424 28.4338 9.98303
32 1 -24.4261 28.9544 9.51773
33 1 -23.8675 29.477 9.00401
34 1 -23.2713 29.89 8.45848
35 1 -22.6273 30.2811 7.91107
36 1 -22.0744 30.614 7.24692
37 1 -21.383 30.9402 6.65821
38 1 -20.5716 31.1353 6.19929
39 1 -19.7936 31.3913 5.71118
40 1 -18.9889 31.5417 5.17168
41 1 -18.275 31.6216 4.61629
42 1 -17.536 31.6341 4.04777
43 1 -16.744 31.7958 3.50446
44 1 -15.941 31.7487 3.0062
45 1 -15.1307 31.7899 2.58463
46 1 -14.1929 31.8592 2.31393
47 1 -13.4085 32.0121 1.9044
48 1 -12.5855 32.2231 1.61883
49 1 -11.7546 32.5618 1.34231
50 1 -10.8816 32.7835 1.03115
51 1 -10.0506 33.0132 0.690502
52 1 -9.26009 33.2043 0.294681
53 1 -8.45408 33.4957 -0.0780714
54 1 -7.63019 33.8071 -0.371865
55 1 -6.74775 34.0271 -0.65087
56 1 -5.84086 34.2117 -0.888436
57 1 -4.93627 34.2969 -1.19957
58 1 -4.01578 34.2936 -1.50359
59 1 -3.14618 34.1376 -1.81704
60 1 -2.23675 33.9168 -2.05725
61 1 -1.39685 33.6348 -2.22775
62 1 -0.556596 33.3567 -2.34602
63 1 0.354141 33.1321 -2.48373
64 1 1.18921 32.7779 -2.60457
65 1 2.06466 32.4589 -2.80556
66 1 2.97576 32.1095 -2.87557
67 1 3.90002 31.7335 -2.77907
68 1 4.6385 31.2281 -2.721
69 1 5.30646 30.5894 -2.49283
70 1 5.90977 29.9351 -2.26479
71 1 6.5069 29.2262 -2.13415
72 1 7.10984 28.5159 -2.09511
73 1 7.69123 27.7983 -2.20237
74 1 8.31624 27.0406 -2.41023
75 1 8.72909 26.2269 -2.56477
76 1 9.08896 25.2862 -2.55582
77 1 9.38339 24.4069 -2.61109
78 1 9.7045 23.5451 -2.70661
79 1 10.0474 22.7155 -2.82348
80 1 10.3534 21.8607 -2.96103
81 1 10.6332 21.0053 -3.05671
82 1 10.9722 20.1028 -2.96992
83 1 11.2408 19.226 -2.83076
84 1 11.5092 18.3327 -2.63389
85 1 11.6883 17.4189 -2.39988
86 1 11.6105 16.5614 -2.1028
87 1 11.5479 15.7167 -1.74249
88 1 11.5744 14.8469 -1.38534
89 1 11.6925 14.0236 -0.973208
90 1 11.5758 13.2021 -0.606442
91 1 11.3462 12.3279 -0.281318
92 1 11.1186 11.3889 -0.174375
93 1 10.8901 10.449 -0.115134
94 1 10.651 9.59081 0.0855334
95 1 10.4201 8.7448 0.299035
96 1 10.2412 7.82441 0.532899
97 1 10.0552 6.91016 0.687077
98 1 9.89224 6.0187 0.862475
99 1 9.8963 5.05976 1.01231
100 1 9.82491 4.15178 1.19672
101 1 9.53001 3.28872 1.46377
102 1 9.25685 2.50262 1.86983
103 1 9.00081 1.70867 2.31361
104 1 8.67815 0.899279 2.78664
105 1 8.38681 0.091323 3.16959
106 1 8.05348 -0.702131 3.54478
107 1 7.79101 -1.52332 3.89489
108 1 7.54918 -2.30972 4.29699
109 1 7.30822 -3.15247 4.5889
110 1 7.04163 -4.04821 4.82709
111 1 6.72688 -4.87845 5.13826
112 1 6.49304 -5.76084 5.33276
113 1 6.12519 -6.58425 5.60426
114 1 5.74454 -7.39816 5.89735
115 1 5.27998 -8.24076 6.18312
116 1 4.9294 -9.04461 6.51655
117 1 4.54757 -9.81594 6.84401
118 1 4.09637 -10.6123 7.17423
119 1 3.5358 -11.3722 7.46853
120 1 2.7846 -11.9869 7.63646
121 1 2.09691 -12.6254 7.78304
122 1 1.40604 -13.2355 7.99953
123 1 0.720834 -13.9114 8.14735
124 1 0.0471567 -14.5471 8.35874
125 1 -0.702865 -15.0892 8.57325
126 1 -1.39682 -15.7139 8.77451
127 1 -1.94888 -16.4162 8.95762
128 1 -2.48622 -17.2061 9.03384
ITEM: TIMESTEP
2430000
ITEM: NUMBER OF ATOMS
128
ITEM: BOX BOUNDS mm mm mm
-6.4000000000000000e+01 6.4000000000000000e+01
-6.4000000000000000e+01 6.4000000000000000e+01
-6.4000000000000000e+01 6.4000000000000000e+01
ITEM: ATOMS id type x y z
1 1 -36.4496 28.8161 31.8594
2 1 -36.3955 28.6368 30.9296
3 1 -36.2254 28.3729 30.0078
4 1 -36.0873 28.0753 29.0958
5 1 -36.0911 27.823 28.1827
6 1 -36.1006 27.5365 27.2613
7 1 -36.0539 27.2547 26.3699
8 1 -35.8309 27.013 25.4902
9 1 -35.6287 26.797 24.5238
10 1 -35.3561 26.7024 23.5968
11 1 -35.0124 26.7334 22.7027
12 1 -34.5987 26.8738 21.8212
13 1 -34.1826 27.0338 20.992
14 1 -33.8168 27.2823 20.1649
15 1 -33.3439 27.5834 19.4185
16 1 -32.7924 27.7169 18.6902
17 1 -32.3333 27.7142 17.8908
18 1 -31.9121 27.8881 17.0631
19 1 -31.4212 28.1966 16.3317
20 1 -30.9584 28.5216 15.6043
21 1 -30.4823 28.9343 14.8792
22 1 -29.9364 29.2785 14.192
23 1 -29.3516 29.5254 13.5339
24 1 -28.7447 29.9635 12.8953
25 1 -28.0534 30.2337 12.2738
26 1 -27.3725 30.4889 11.6703
27 1 -26.5071 30.7716 11.246
28 1 -25.7205 31.122 10.8665
29 1 -24.8968 31.3391 10.3247
30 1 -24.0602 31.5258 9.84128
31 1 -23.1703 31.7036 9.43652
32 1 -22.3593 31.8841 9.03267
33 1 -21.5447 32.0697 8.62803
34 1 -20.7558 32.3294 8.16911
35 1 -20.0215 32.5798 7.67375
36 1 -19.2238 32.7353 7.26947
37 1 -18.4428 32.8279 6.7377
38 1 -17.666 32.9934 6.25771
39 1 -16.9503 33.1155 5.60372
40 1 -16.3282 33.2171 4.9007
41 1 -15.7234 33.3003 4.23803
42 1 -14.9352 33.4569 3.6961
43 1 -14.1592 33.4567 3.1744
44 1 -13.3667 33.4145 2.67187
45 1 -12.65 33.4054 2.08605
46 1 -11.8908 33.4768 1.52188
47 1 -11.2259 33.5589 0.873061
48 1 -10.599 33.6871 0.199517
49 1 -9.95152 33.9664 -0.328916
50 1 -9.36456 34.2733 -0.964556
51 1 -8.83502 34.5681 -1.63306
52 1 -8.20083 34.7959 -2.29015
53 1 -7.62942 34.8359 -3.00198
54 1 -6.98382 34.7156 -3.64456
55 1 -6.29283 34.6536 -4.23512
56 1 -5.52142 34.5357 -4.72589
57 1 -4.68864 34.3942 -5.06478
58 1 -3.78077 34.3022 -5.29906
59 1 -2.8775 34.1874 -5.35628
60 1 -1.96682 34.0556 -5.37417
61 1 -1.03342 33.9269 -5.45815
62 1 -0.122788 33.7558 -5.56118
63 1 0.747447 33.4708 -5.71613
64 1 1.5754 33.2109 -5.93556
65 1 2.40264 32.8115 -6.07611
66 1 3.20286 32.3898 -6.29488
67 1 4.13156 31.9109 -6.39816
68 1 4.8682 31.3423 -6.52018
69 1 5.64136 30.8367 -6.57119
70 1 6.47269 30.4405 -6.51827
71 1 7.25757 29.9104 -6.25991
72 1 7.9153 29.3586 -5.96599
73 1 8.53769 28.7101 -5.71321
74 1 9.07108 27.9225 -5.48137
75 1 9.57125 27.1884 -5.17204
76 1 10.0115 26.4039 -4.79891
77 1 10.4213 25.6288 -4.46171
78 1 10.852 24.8484 -4.07764
79 1 11.2535 24.1285 -3.67921
80 1 11.6338 23.381 -3.30022
81 1 11.9283 22.5391 -2.98034
82 1 12.1533 21.6729 -2.64769
83 1 12.262 20.8042 -2.34955
84 1 12.3164 19.849 -2.13211
85 1 12.3073 18.9341 -1.86111
86 1 12.2924 18.0539 -1.52243
87 1 12.2768 17.199 -1.15293
88 1 12.2875 16.3578 -0.801977
89 1 12.1434 15.4898 -0.476827
90 1 11.879 14.5889 -0.19854
91 1 11.7315 13.7091 0.114232
92 1 11.6607 12.8121 0.379186
93 1 11.6706 11.9983 0.839561
94 1 11.6138 11.154 1.32216
95 1 11.5079 10.363 1.75464
96 1 11.4125 9.55358 2.22596
97 1 11.1884 8.82465 2.71427
98 1 10.9233 8.09485 3.22133
99 1 10.6366 7.38375 3.6768
100 1 10.3307 6.5966 4.07613
101 1 10.0714 5.80385 4.5279
102 1 9.6356 5.06751 4.78888
103 1 9.28607 4.28876 5.11459
104 1 9.00653 3.48072 5.53365
105 1 8.88655 2.59131 5.80496
106 1 8.83104 1.67045 6.03517
107 1 8.63426 0.788604 6.30112
108 1 8.50351 -0.115737 6.4902
109 1 8.17016 -0.995561 6.60101
110 1 8.00248 -1.95112 6.62833
111 1 7.92393 -2.87856 6.67501
112 1 7.92811 -3.85129 6.66214
113 1 7.93112 -4.77826 6.63085
114 1 7.92297 -5.71948 6.57905
115 1 7.8543 -6.61143 6.60143
116 1 7.77401 -7.52766 6.61117
117 1 7.60601 -8.49144 6.59843
118 1 7.40036 -9.42395 6.47766
119 1 7.20694 -10.325 6.43593
120 1 6.95757 -11.2169 6.45656
121 1 6.83772 -12.1419 6.50414
122 1 6.76228 -13.0946 6.68219
123 1 6.62899 -14.1126 6.88076
124 1 6.52879 -15.0367 7.07337
125 1 6.47306 -15.9319 7.38451
126 1 6.10523 -16.7471 7.73125
127 1 5.8325 -17.6439 7.93571
128 1 5.58186 -18.5142 8.11594
ITEM: TIMESTEP
2440000
ITEM: NUMBER OF ATOMS
128
ITEM: BOX BOUNDS mm mm mm
-6.4000000000000000e+01 6.4000000000000000e+01
-6.4000000000000000e+01 6.4000000000000000e+01
-6.4000000000000000e+01 6.4000000000000000e+01
ITEM: ATOMS id type x y z
1 1 -38.7969 25.2019 33.9025
2 1 -38.1898 25.5785 33.2524
3 1 -37.705 25.8654 32.5047
4 1 -37.2928 26.1896 31.725
5 1 -36.7803 26.5722 31.1205
6 1 -36.2829 26.9372 30.411
7 1 -35.7856 27.2884 29.6804
8 1 -35.2926 27.6513 28.9722
9 1 -34.7591 28.1595 28.3834
10 1 -34.2373 28.6648 27.8373
11 1 -33.5463 29.1488 27.3291
12 1 -32.9208 29.5969 26.8576
13 1 -32.356 30.1116 26.2234
14 1 -31.8604 30.6675 25.6394
15 1 -31.368 31.1955 25.0958
16 1 -30.8667 31.5667 24.3251
17 1 -30.3599 31.8476 23.5693
18 1 -29.8878 32.0625 22.7295
19 1 -29.454 32.3556 21.9202
20 1 -28.9376 32.6872 21.2156
21 1 -28.4398 32.9234 20.3874
22 1 -28.0444 33.1571 19.6086
23 1 -27.8326 33.4794 18.7346
24 1 -27.4742 33.8209 17.9562
25 1 -27.2215 34.1163 17.0946
26 1 -26.9857 34.331 16.1964
27 1 -26.6998 34.5146 15.3398
28 1 -26.4429 34.6952 14.4507
29 1 -26.1447 34.9766 13.5781
30 1 -25.8897 35.192 12.6905
31 1 -25.5577 35.4519 11.87
32 1 -25.1408 35.7444 11.0802
33 1 -24.7881 36.1116 10.2492