ITEM: TIMESTEP
1280000
ITEM: NUMBER OF ATOMS
128
ITEM: BOX BOUNDS mm mm mm
-6.4000000000000000e+01 6.4000000000000000e+01
-6.4000000000000000e+01 6.4000000000000000e+01
-6.4000000000000000e+01 6.4000000000000000e+01
ITEM: ATOMS id type x y z
1 1 -11.7009 3.78181 10.0903
2 1 -11.611 3.11364 9.40377
3 1 -12.2097 3.73576 8.92115
4 1 -11.4654 4.30212 8.83861
5 1 -10.8508 4.72459 9.48449
6 1 -10.1361 5.05304 8.995
7 1 -9.46063 5.53782 8.58779
8 1 -9.17807 4.95513 7.92392
9 1 -8.40325 4.39236 8.26136
10 1 -7.84135 4.78221 7.54151
11 1 -8.16991 5.47864 8.12761
12 1 -8.54631 6.17527 8.66154
13 1 -9.21553 6.77635 8.85233
14 1 -9.43389 7.7302 8.82854
15 1 -9.5324 8.40496 8.12674
16 1 -10.3691 8.20256 7.93331
17 1 -10.5169 8.77818 7.16507
18 1 -10.9583 9.3634 7.69327
19 1 -10.3395 9.38742 8.41737
20 1 -9.81905 10.0983 8.49017
21 1 -10.5066 10.768 8.76092
22 1 -10.5101 11.7297 8.57181
23 1 -11.2869 11.6746 8.05527
24 1 -11.0474 11.0503 7.36901
25 1 -10.1448 11.1706 7.03426
26 1 -9.51612 11.6852 7.51179
27 1 -9.60098 12.6266 7.42585
28 1 -10.0792 12.8795 6.65613
29 1 -10.6793 12.2606 6.33608
30 1 -11.3361 11.6763 6.47495
31 1 -12.1726 11.7969 6.00068
32 1 -12.099 10.8625 6.03374
33 1 -12.1814 10.0114 5.6199
34 1 -11.4577 9.49923 5.31881
35 1 -10.558 9.13305 5.21738
36 1 -10.0333 9.05518 4.47572
37 1 -9.90623 8.18614 4.19624
38 1 -10.6162 7.53375 4.16229
39 1 -10.5538 7.15109 4.98197
40 1 -9.63189 7.19746 4.9844
41 1 -8.82336 7.02169 5.42997
42 1 -8.15574 7.113 4.76378
43 1 -7.81131 6.26859 4.75814
44 1 -8.3963 5.834 4.18545
45 1 -8.67812 5.84064 3.32226
46 1 -9.24011 6.16089 2.64142
47 1 -10.1553 6.10654 2.89881
48 1 -10.1158 6.72848 2.20936
49 1 -10.1415 7.49606 2.76428
50 1 -11.0603 7.15404 2.70313
51 1 -10.9492 6.68343 3.50185
52 1 -11.6484 7.25376 3.84262
53 1 -11.6366 7.98732 3.29498
54 1 -12.4446 8.21725 2.87736
55 1 -12.0856 8.39328 2.05007
56 1 -11.1319 8.51824 1.98222
57 1 -11.1584 7.82565 1.27474
58 1 -10.9854 8.61089 0.846686
59 1 -11.8715 8.29087 0.612302
60 1 -12.685 7.83853 0.671244
61 1 -13.019 6.95602 0.745952
62 1 -13.8742 7.39749 0.734039
63 1 -14.3475 7.56334 1.50091
64 1 -13.7786 7.55688 2.26562
65 1 -13.5072 8.44399 2.50383
66 1 -13.4836 8.92065 3.35131
67 1 -14.1153 9.44523 3.79384
68 1 -14.3099 10.082 3.14589
69 1 -14.316 10.8763 3.68183
70 1 -14.3243 11.603 3.08383
71 1 -14.1772 12.4946 2.72829
72 1 -13.4261 11.9489 2.49407
73 1 -13.2058 12.6932 3.00435
74 1 -12.967 12.5409 3.91647
75 1 -13.2619 13.4254 4.13455
76 1 -13.8128 13.992 3.73109
77 1 -13.7712 14.593 4.41493
78 1 -14.4146 15.285 4.63367
79 1 -14.8729 16.0386 4.23226
80 1 -15.016 16.3859 3.33733
81 1 -14.866 16.9638 2.59174
82 1 -14.2312 16.2372 2.6138
83 1 -13.4553 16.4368 3.12701
84 1 -13.2321 16.8149 2.2863
85 1 -12.9855 17.613 1.88166
86 1 -12.3349 18.2869 1.9452
87 1 -11.5995 18.8641 1.89719
88 1 -11.7983 19.7596 2.05836
89 1 -11.0523 20.0428 2.56248
90 1 -10.2416 20.0559 3.06761
91 1 -9.57468 20.6816 2.88077
92 1 -9.59437 21.1935 3.65744
93 1 -9.54568 21.8375 2.9727
94 1 -9.50572 22.7592 3.11843
95 1 -8.51692 22.944 3.1771
96 1 -7.82012 23.3854 3.51601
97 1 -7.00266 23.2832 2.95536
98 1 -6.75979 23.3856 2.05582
99 1 -5.84651 23.1434 2.14417
100 1 -5.01706 23.5284 1.79643
101 1 -4.68724 22.6669 1.92799
102 1 -4.30101 22.034 1.32567
103 1 -4.39877 21.7198 0.425387
104 1 -4.44046 22.5417 -0.0435816
105 1 -4.06964 23.3913 -0.144279
106 1 -3.41014 23.3638 0.507318
107 1 -2.60852 23.7973 0.804143
108 1 -2.72485 24.2945 0.0238627
109 1 -2.98939 25.0229 -0.481532
110 1 -3.12929 25.9818 -0.457013
111 1 -3.1894 26.9465 -0.645334
112 1 -3.18681 27.8252 -0.767147
113 1 -2.4773 28.2691 -0.359159
114 1 -2.45057 28.9978 0.226541
115 1 -1.74588 29.4461 -0.156684
116 1 -1.31978 29.4644 0.665676
117 1 -0.962198 28.8484 1.29834
118 1 -1.20429 29.6442 1.81884
119 1 -1.13507 29.4638 2.71578
120 1 -1.53969 28.7402 3.17921
121 1 -2.2508 28.685 2.57535
122 1 -1.63674 27.9166 2.57374
123 1 -0.962256 27.4126 3.01535
124 1 -0.694253 26.5089 3.20062
125 1 -1.53876 26.0409 3.24271
126 1 -1.32592 25.7649 2.35148
127 1 -0.475563 26.1605 2.26044
128 1 0.285342 25.7768 2.62264
ITEM: TIMESTEP
1290000
ITEM: NUMBER OF ATOMS
128
ITEM: BOX BOUNDS mm mm mm
-6.4000000000000000e+01 6.4000000000000000e+01
-6.4000000000000000e+01 6.4000000000000000e+01
-6.4000000000000000e+01 6.4000000000000000e+01
ITEM: ATOMS id type x y z
1 1 -7.68967 3.77188 10.2972
2 1 -7.25015 4.61122 10.1514
3 1 -8.0909 5.06129 10.246
4 1 -8.97498 5.02502 10.11
5 1 -9.19792 4.68399 9.24333
6 1 -8.6328 5.17085 8.69832
7 1 -9.1604 5.18851 7.93442
8 1 -9.99119 5.49149 8.17573
9 1 -10.1203 6.16742 7.55
10 1 -9.22683 6.34077 7.93228
11 1 -9.02379 6.90628 7.18374
12 1 -8.45595 7.65248 7.17334
13 1 -8.89503 8.14601 7.86519
14 1 -9.4753 8.68099 8.3218
15 1 -9.1847 9.53003 8.11835
16 1 -9.06406 9.68332 9.05025
17 1 -9.14648 10.4302 9.60527
18 1 -8.23908 10.209 9.42728
19 1 -7.90082 9.52255 8.88932
20 1 -8.07933 8.61626 9.07135
21 1 -8.04393 8.98075 9.94059
22 1 -7.23645 8.60927 9.62036
23 1 -6.47323 9.1216 9.8737
24 1 -5.57833 9.02757 9.65784
25 1 -5.35695 8.22233 9.11764
26 1 -4.94722 8.76573 8.41176
27 1 -4.16815 9.30569 8.43687
28 1 -4.39887 9.56706 7.59887
29 1 -4.06628 9.05477 6.89211
30 1 -4.48385 8.68892 6.0958
31 1 -4.22905 7.84208 5.72559
32 1 -4.07849 8.54407 5.08125
33 1 -3.34573 8.3991 4.46512
34 1 -3.59058 8.04451 3.66937
35 1 -4.28544 7.36621 3.65456
36 1 -4.2853 7.05492 2.75142
37 1 -5.17411 7.23211 2.60685
38 1 -5.04724 7.60762 1.74096
39 1 -5.82938 8.00771 2.0266
40 1 -5.53398 8.84929 1.85716
41 1 -6.38314 8.76734 1.36818
42 1 -7.18429 9.04728 1.00152
43 1 -7.39554 9.74215 1.62598
44 1 -7.86676 9.55824 2.4477
45 1 -7.9594 8.58545 2.32105
46 1 -8.88166 8.4605 2.40271
47 1 -8.85425 8.69669 3.32484
48 1 -9.24163 7.83133 3.1757
49 1 -8.83282 7.24826 3.71782
50 1 -8.65849 7.40355 4.63912
51 1 -8.53566 7.53313 5.57467
52 1 -8.63957 8.49851 5.65725
53 1 -8.77532 9.43373 5.82012
54 1 -8.57097 9.1927 6.72506
55 1 -8.71401 9.96313 7.19584
56 1 -9.53826 9.65349 6.83306
57 1 -9.72356 8.76142 6.43501
58 1 -10.133 8.15114 5.8599
59 1 -10.0475 8.74762 5.13944
60 1 -10.1607 9.6151 5.44993
61 1 -10.8472 9.24129 5.98929
62 1 -10.9411 10.1634 5.85572
63 1 -11.6067 10.5873 6.46892
64 1 -12.3481 10.6435 7.01715
65 1 -12.9791 11.1651 6.53849
66 1 -13.6287 11.4161 5.90032
67 1 -12.9824 11.896 5.35576
68 1 -13.8398 11.8961 4.99799
69 1 -13.4613 12.496 4.37125
70 1 -13.1522 12.2888 3.4895
71 1 -12.4966 11.6109 3.80141
72 1 -11.5658 11.5139 3.81219
73 1 -10.9722 11.5095 3.04402
74 1 -10.672 12.2033 2.54224
75 1 -10.4957 13.1392 2.57704
76 1 -10.0632 13.4254 1.76857
77 1 -10.6834 14.135 1.94775
78 1 -10.4361 14.6617 1.21434
79 1 -9.57755 14.9013 1.44819
80 1 -8.67283 15.0711 1.69081
81 1 -8.6916 15.8748 1.16866
82 1 -8.76335 16.2759 1.98895
83 1 -8.4552 17.1238 1.75063
84 1 -7.9967 17.0218 0.93485
85 1 -8.38414 17.4124 0.19682
86 1 -8.768 16.895 -0.560186
87 1 -9.57177 17.0791 -1.0013
88 1 -10.1126 17.2452 -1.79646
89 1 -9.81262 17.4705 -2.65873
90 1 -10.0117 18.3687 -2.62888
91 1 -9.52957 18.6688 -1.85849
92 1 -8.69585 18.5632 -2.39208
93 1 -7.91903 18.7237 -1.93693
94 1 -7.78616 18.9479 -2.88872
95 1 -8.14484 19.7177 -3.33901
96 1 -8.07521 20.6919 -3.30146
97 1 -8.1338 21.0442 -4.16927
98 1 -8.10616 21.6674 -4.93938
99 1 -8.35437 22.4445 -4.50198
100 1 -7.4829 22.5173 -4.0915
101 1 -6.93654 21.7731 -4.54434
102 1 -6.28711 21.7518 -5.22352
103 1 -6.16968 22.6491 -4.91631
104 1 -6.13393 23.595 -4.82355
105 1 -5.4416 23.9686 -4.22852
106 1 -5.11109 24.3355 -5.04576
107 1 -4.73531 23.8004 -5.7752
108 1 -4.67236 22.9813 -5.24154
109 1 -4.79651 22.9387 -4.32773
110 1 -5.05406 22.4837 -3.54565
111 1 -4.64595 23.2276 -3.14186
112 1 -4.60423 24.187 -3.10193
113 1 -3.74108 24.1194 -2.81351
114 1 -3.56046 23.3649 -2.25046
115 1 -2.60971 23.1068 -2.23014
116 1 -2.02609 23.1879 -1.53352
117 1 -2.43318 22.5397 -0.998213
118 1 -3.21435 23.1309 -1.134
119 1 -3.44378 23.3049 -0.207375
120 1 -3.79661 23.4549 0.654456
121 1 -4.71749 23.6276 0.621863
122 1 -4.62725 24.1775 -0.259374
123 1 -4.57427 24.8107 -0.98946
124 1 -4.04172 25.0874 -0.344062
125 1 -3.24063 25.5493 -0.392209
126 1 -2.99858 26.3442 0.15857
127 1 -3.32949 26.7785 -0.61952
128 1 -4.17836 26.659 -0.242566
ITEM: TIMESTEP
1300000
ITEM: NUMBER OF ATOMS
128
ITEM: BOX BOUNDS mm mm mm
-6.4000000000000000e+01 6.4000000000000000e+01
-6.4000000000000000e+01 6.4000000000000000e+01
-6.4000000000000000e+01 6.4000000000000000e+01
ITEM: ATOMS id type x y z
1 1 -10.4377 7.14286 13.961
2 1 -10.8871 7.09804 13.1352
3 1 -11.0505 8.03687 13.0252
4 1 -11.0462 9.04161 13.079
5 1 -10.4636 9.05925 13.8216
6 1 -9.74668 9.67925 13.8571
7 1 -9.24011 9.68605 12.9993
8 1 -8.57912 10.2476 12.6716
9 1 -8.42654 10.9567 12.0236
10 1 -8.46942 11.2999 11.1497
11 1 -8.29237 12.2036 11.2292
12 1 -8.24494 11.9257 10.325
13 1 -8.22609 12.806 9.98156
14 1 -8.18021 13.5077 9.34027
15 1 -8.97544 13.84 8.99997
16 1 -9.21199 14.7365 8.84629
17 1 -8.50624 15.2462 9.20251
18 1 -8.06165 15.2082 8.37989
19 1 -7.61255 15.2972 7.52986
20 1 -6.76694 14.8153 7.55562
21 1 -6.6907 14.2079 8.22139
22 1 -6.4898 13.3432 7.88429
23 1 -5.82462 12.6693 7.94035
24 1 -5.59095 11.8024 8.25959
25 1 -5.47679 11.1592 8.96378
26 1 -4.89904 10.8431 9.60261
27 1 -4.08092 10.3506 9.47231
28 1 -3.18578 10.1006 9.42975
29 1 -2.88631 9.18792 9.62231
30 1 -2.58274 8.5776 9.02964
31 1 -2.93467 8.42745 8.08759
32 1 -3.13382 7.56514 8.42975
33 1 -3.24866 6.6199 8.26241
34 1 -3.95198 6.62384 7.61048
35 1 -4.2585 6.70499 6.67259
36 1 -4.46352 5.8119 6.46901
37 1 -4.16062 4.93831 6.67729
38 1 -3.81791 4.40796 5.91777
39 1 -4.48534 3.79628 5.69495
40 1 -5.32166 3.90343 5.28204
41 1 -6.22455 4.20301 5.31644
42 1 -7.17171 4.26643 5.6135
43 1 -7.8457 4.76569 6.07257
44 1 -8.07256 4.18502 6.7633
45 1 -8.65511 4.79026 7.18425
46 1 -8.98379 5.55824 6.80182
47 1 -8.30886 5.89442 6.17818
48 1 -8.38347 6.80317 6.39335
49 1 -9.03163 7.24345 6.91587
50 1 -9.96223 7.3582 6.92715
51 1 -10.1126 8.25541 6.62026
52 1 -10.2245 8.85807 5.88807
53 1 -9.36411 9.14811 5.49745
54 1 -9.52907 10.0772 5.69045
55 1 -9.30538 10.7619 5.07001
56 1 -8.3907 11.0258 4.86014
57 1 -8.69189 11.5135 4.04252
58 1 -8.78326 12.1251 4.75348
59 1 -8.90026 12.9648 4.99273
60 1 -9.51593 13.1686 5.66177
61 1 -10.4374 12.9949 5.89073
62 1 -11.0272 13.017 5.16654
63 1 -11.7244 12.4869 4.97979
64 1 -11.9765 11.944 5.70876
65 1 -11.583 11.3777 5.04773
66 1 -11.5869 11.4524 4.05273
67 1 -11.4399 12.3715 4.00447
68 1 -11.9217 13.2093 3.87421
69 1 -11.7148 13.985 3.37359
70 1 -11.6201 14.8333 2.97734
71 1 -10.7455 14.4858 3.04844
72 1 -10.3087 15.0195 2.41813
73 1 -10.5659 14.2727 1.87288
74 1 -9.89343 14.0575 1.24288
75 1 -9.04492 14.5099 1.19498
76 1 -8.40137 14.8984 0.697975
77 1 -8.68345 15.6965 0.300288
78 1 -9.15832 16.1919 -0.347476
79 1 -8.75058 15.7726 -1.07821
80 1 -7.8812 16.2376 -0.858064
81 1 -7.80214 16.5344 -1.76466
82 1 -8.2368 17.1725 -2.27656
83 1 -8.3182 18.064 -2.37754
84 1 -8.69386 18.4308 -1.61789
85 1 -9.61235 18.555 -1.65641
86 1 -9.64025 17.6336 -1.84376
87 1 -10.337 17.8996 -2.41066
88 1 -9.79019 18.4054 -2.95772
89 1 -9.32688 17.6475 -3.28577
90 1 -9.31746 17.7761 -4.24189
91 1 -8.45156 18.0541 -3.84147
92 1 -8.3168 18.1426 -4.75198
93 1 -8.52489 18.9727 -5.11425
94 1 -8.2482 19.8826 -5.23419
95 1 -8.83565 20.1053 -5.95157
96 1 -8.82366 20.668 -6.6891
97 1 -8.64724 21.3525 -6.01876
98 1 -7.8505 21.7915 -5.68467
99 1 -7.77668 21.9006 -6.59015
100 1 -7.68307 22.7803 -6.89446
101 1 -7.48055 22.4972 -7.76065
102 1 -6.9548 22.9147 -8.39318
103 1 -6.31565 22.8163 -9.07147
104 1 -6.01632 22.5798 -8.23604
105 1 -5.09288 22.7606 -8.40418
106 1 -4.54115 22.1292 -7.88398
107 1 -4.3248 21.2827 -8.24744
108 1 -3.71454 20.6798 -7.90468
109 1 -3.16728 21.2741 -7.4885
110 1 -2.86359 21.9151 -6.9039
111 1 -2.9284 22.1531 -6.03845
112 1 -2.35478 22.8676 -5.74742
113 1 -1.85436 23.2355 -5.01416
114 1 -1.98858 22.9015 -4.07519
115 1 -1.17862 22.8384 -3.53937
116 1 -1.48814 23.3955 -2.85715
117 1 -0.830803 24.0425 -2.55315
118 1 -0.959505 23.5103 -1.81635
119 1 -1.75993 23.9265 -1.54473
120 1 -2.15225 24.626 -1.09076
121 1 -1.26291 24.3425 -0.775166
122 1 -0.469903 24.7547 -0.384847
123 1 0.345093 25.1145 -0.142771
124 1 0.625028 25.8335 -0.734593
125 1 1.36581 26.1039 -1.25736
126 1 1.88463 26.8328 -0.943197
127 1 2.00617 27.4913 -0.269801
128 1 2.73329 27.9928 -0.369152
ITEM: TIMESTEP
1310000
ITEM: NUMBER OF ATOMS
128
ITEM: BOX BOUNDS mm mm mm
-6.4000000000000000e+01 6.4000000000000000e+01
-6.4000000000000000e+01 6.4000000000000000e+01
-6.4000000000000000e+01 6.4000000000000000e+01
ITEM: ATOMS id type x y z
1 1 -3.14332 15.8289 3.55065
2 1 -3.32406 16.2656 2.75277
3 1 -2.76636 15.593 2.46324
4 1 -2.27744 15.8018 1.72768
5 1 -2.38232 16.5053 1.08837
6 1 -3.24544 16.4353 0.639852
7 1 -4.12226 16.0351 0.780265
8 1 -4.949 16.4788 0.961772
9 1 -5.33215 15.6135 0.862589
10 1 -5.02051 15.0203 1.513
11 1 -4.54376 15.043 2.27144
12 1 -4.33858 14.6004 3.08078
13 1 -4.90027 13.8944 3.07257
14 1 -4.69005 12.9308 3.11681
15 1 -4.97901 11.9796 3.19525
16 1 -4.9803 11.3812 3.869
17 1 -4.72955 10.7619 4.48884
18 1 -4.17169 10.1144 4.77952
19 1 -3.83798 9.27375 5.01682
20 1 -4.28456 8.79202 5.77103
21 1 -5.09617 9.06573 6.22555
22 1 -5.43623 8.41266 5.65058
23 1 -6.33721 8.40138 6.07132
24 1 -6.5743 8.42588 6.9982
25 1 -7.13972 8.42049 7.72246
26 1 -7.3651 7.53753 7.34593
27 1 -6.85257 6.77557 7.54796
28 1 -7.72007 6.50948 7.27739
29 1 -7.77858 6.42778 6.33908
30 1 -6.91599 6.0202 6.24904
31 1 -5.99102 6.00563 6.14702
32 1 -5.46005 6.4125 6.85298
33 1 -5.24872 7.27668 6.45562
34 1 -4.28485 7.33 6.2386
35 1 -4.78489 7.23754 5.45276
36 1 -5.34478 6.64195 4.97996
37 1 -5.17402 6.40876 4.11335
38 1 -5.75949 7.14179 3.94713
39 1 -5.44373 7.91223 3.53507
40 1 -6.15271 7.56985 2.99041
41 1 -7.09216 7.67295 2.85763
42 1 -7.12495 7.79207 3.80944
43 1 -7.7764 7.24119 4.34187
44 1 -8.06086 7.3701 5.24464
45 1 -8.64562 7.94153 5.64272
46 1 -9.56506 8.07886 5.61911
47 1 -9.9818 8.88965 5.61684
48 1 -9.08304 9.14333 5.26662
49 1 -9.43121 9.78144 5.88605
50 1 -10.1723 10.4115 5.76998
51 1 -10.2201 11.0493 5.04182
52 1 -10.433 11.9571 4.95191
53 1 -9.5656 12.4894 4.99396
54 1 -8.71028 12.158 5.14925
55 1 -7.97499 12.604 4.82988
56 1 -7.29241 13.0506 4.26662
57 1 -7.16619 13.8284 3.83864
58 1 -7.38502 14.7523 3.95798
59 1 -6.59459 15.2781 4.02559
60 1 -7.02925 15.9259 3.48849
61 1 -7.17487 15.2774 2.80874
62 1 -7.7571 15.6064 2.14702
63 1 -7.61369 16.4298 1.71425
64 1 -6.66706 16.664 1.72365
65 1 -6.33049 17.0789 0.953422
66 1 -7.01553 17.6555 0.669425
67 1 -7.93407 17.7131 0.863
68 1 -7.90973 17.4606 -0.0762721
69 1 -8.47395 18.1686 -0.00971943
70 1 -8.82032 18.8319 0.583866
71 1 -9.42807 18.1356 0.590931
72 1 -9.7857 17.2854 0.48252
73 1 -10.6339 17.2241 0.885762
74 1 -10.8523 18.0415 0.409748
75 1 -10.6056 18.9142 0.18513
76 1 -11.2117 18.6607 -0.530967
77 1 -11.9463 18.0608 -0.324023
78 1 -12.7252 17.5888 -0.181567
79 1 -13.3885 18.1568 0.167351
80 1 -14.0307 18.7016 0.500978
81 1 -14.5785 17.9716 0.583282
82 1 -15.198 18.4336 0.0233841
83 1 -14.4589 18.2158 -0.472583
84 1 -14.9981 17.965 -1.23168
85 1 -14.2249 17.6248 -1.72729
86 1 -14.1772 17.8692 -2.64955
87 1 -13.357 18.0558 -3.11151
88 1 -13.8799 18.6714 -3.64991
89 1 -14.4428 19.3647 -3.88561
90 1 -14.5914 19.7394 -4.73976
91 1 -15.0215 20.3139 -4.11714
92 1 -14.8037 21.2268 -4.49196
93 1 -14.6389 22.0729 -4.1723
94 1 -13.8806 21.6821 -4.53566
95 1 -13.725 20.745 -4.50084
96 1 -13.5873 20.4144 -5.32881
97 1 -12.8703 20.0756 -4.86238
98 1 -12.413 20.8595 -5.07338
99 1 -12.6824 21.1859 -4.2342
100 1 -11.8512 21.3663 -3.89402
101 1 -11.5326 21.9776 -4.49174
102 1 -11.0027 22.0279 -5.24472
103 1 -10.1015 21.8322 -5.3174
104 1 -9.63205 21.2026 -5.86512
105 1 -9.01274 21.0177 -6.56306
106 1 -8.44924 20.7614 -7.25777
107 1 -7.85177 21.4316 -7.43197
108 1 -8.12338 21.3768 -8.34374
109 1 -7.54969 21.4008 -9.09031
110 1 -7.19742 22.2985 -9.11075
111 1 -6.8306 22.6687 -8.32545
112 1 -6.9546 23.5918 -8.55188
113 1 -7.35475 24.0875 -7.83684
114 1 -8.19751 23.6479 -7.8522
115 1 -8.46049 22.7096 -7.94523
116 1 -8.073 22.8241 -7.08066
117 1 -7.66321 23.3002 -6.33643
118 1 -6.8078 23.2209 -5.92968
119 1 -7.14789 24.0559 -5.51006
120 1 -6.59182 24.3106 -4.79998
121 1 -5.82843 24.7415 -4.42006
122 1 -5.5326 25.0017 -5.28987
123 1 -5.0295 24.4146 -5.79711
124 1 -5.40038 23.8488 -5.19054
125 1 -5.06175 23.0529 -4.84706
126 1 -4.91311 22.5874 -5.66438
127 1 -4.10324 22.4776 -5.21538
128 1 -3.86108 22.8901 -4.41928
ITEM: TIMESTEP
1320000
ITEM: NUMBER OF ATOMS
128
ITEM: BOX BOUNDS mm mm mm
-6.4000000000000000e+01 6.4000000000000000e+01
-6.4000000000000000e+01 6.4000000000000000e+01
-6.4000000000000000e+01 6.4000000000000000e+01
ITEM: ATOMS id type x y z
1 1 -5.1582 17.3406 2.62251
2 1 -4.27614 17.3623 2.98883
3 1 -3.46203 17.4712 2.51859
4 1 -2.57189 17.3517 2.21154
5 1 -2.0722 17.0332 2.95033
6 1 -1.92582 17.6067 3.69405
7 1 -1.33163 16.9127 3.5651
8 1 -0.851447 17.6344 3.84269
9 1 -1.29129 17.4098 4.652
10 1 -2.13553 17.0524 5.00449
11 1 -2.7883 17.1836 4.32936
12 1 -3.27244 16.3979 4.26788
13 1 -3.89889 17.0432 3.9939
14 1 -4.68633 17.4418 3.95795
15 1 -5.30993 16.7931 3.73985
16 1 -4.96285 16.6124 4.60299
17 1 -5.31777 17.2827 5.15789
18 1 -5.97975 17.4359 5.82195
19 1 -6.57043 17.0122 6.35269
20 1 -6.21704 16.1954 6.68818
21 1 -6.10782 15.6056 7.35249
22 1 -5.22872 15.6471 7.67568
23 1 -5.84823 15.6041 8.43883
24 1 -5.42908 14.7963 8.66965
25 1 -4.99563 14.1269 9.16452
26 1 -4.2574 14.0429 9.75499
27 1 -3.77181 13.7223 10.489
28 1 -2.85908 13.3434 10.5423
29 1 -3.22484 12.454 10.513
30 1 -3.64275 11.6438 10.5387
31 1 -4.04083 10.814 10.8556
32 1 -3.88144 10.113 11.4754
33 1 -4.49643 9.67667 10.9402
34 1 -5.38614 9.37875 11.1339
35 1 -5.57109 9.24936 12.0876
36 1 -6.2076 8.63146 12.0734
37 1 -5.99384 7.7492 11.8202
38 1 -5.28045 7.16637 11.7225
39 1 -5.8211 7.11935 10.9662
40 1 -5.45038 6.823 10.1865
41 1 -5.28272 6.88837 9.27217
42 1 -5.50413 6.13821 8.72059
43 1 -4.94422 6.12827 7.92531
44 1 -4.94248 6.99972 7.61285
45 1 -4.06796 7.24605 7.98894
46 1 -3.3909 7.75078 8.43464
47 1 -3.51596 8.53825 7.85687
48 1 -4.11837 9.23313 8.00674
49 1 -4.82797 9.81266 7.80527
50 1 -4.58252 10.6947 7.99635
51 1 -4.18502 11.1011 7.27434
52 1 -4.07148 11.9463 7.62038
53 1 -4.57002 12.0013 8.41369
54 1 -5.43073 12.1099 8.73963
55 1 -5.6099 12.9171 8.32369
56 1 -5.58766 13.8973 8.23479
57 1 -5.85498 14.4823 7.59844
58 1 -6.76075 14.8153 7.62687
59 1 -7.20079 15.1101 6.83112
60 1 -7.47387 15.2075 5.88951
61 1 -7.03185 15.8344 5.26829
62 1 -7.59586 16.3577 5.83352
63 1 -8.50485 16.3354 5.74943
64 1 -8.29731 17.0296 5.16317
65 1 -8.94523 17.569 4.75255
66 1 -9.25471 17.7525 3.90771
67 1 -9.01359 18.651 3.64801
68 1 -9.1059 19.1964 2.89308
69 1 -9.46491 18.4564 2.47281
70 1 -9.21485 18.8969 1.69726
71 1 -9.38168 19.8444 1.66393
72 1 -10.2289 19.914 1.23552
73 1 -10.6608 19.9767 0.379599
74 1 -11.2012 20.6914 0.679896
75 1 -10.9552 21.6353 0.753872
76 1 -11.3396 22.1733 0.106047
77 1 -10.693 21.8976 -0.525538
78 1 -9.74156 21.8305 -0.340761
79 1 -9.52944 20.8681 -0.20424
80 1 -10.4785 20.9426 -0.350509
81 1 -10.6801 20.5554 -1.12296
82 1 -11.2706 20.2508 -1.84975
83 1 -10.6359 20.7389 -2.33671
84 1 -11.4002 21.3046 -2.06741
85 1 -10.7452 22.0448 -2.15823
86 1 -10.1353 22.6998 -2.16749
87 1 -9.2843 22.7736 -2.57951
88 1 -9.62878 22.6029 -3.41315
89 1 -9.09555 23.2983 -3.63585
90 1 -8.35259 23.0939 -4.15888
91 1 -8.85186 22.2942 -4.18644
92 1 -9.06905 22.6358 -5.06719
93 1 -8.37357 22.9189 -5.67677
94 1 -9.01088 23.3962 -6.0818
95 1 -9.66644 23.9658 -6.54108
96 1 -10.2887 23.2281 -6.37173
97 1 -10.7876 22.5634 -6.78684
98 1 -11.4197 23.0341 -6.30606
99 1 -11.2045 23.8771 -6.52096
100 1 -10.9304 24.3081 -7.27605
101 1 -10.8546 25.133 -6.80706
102 1 -11.2638 25.8477 -6.43894
103 1 -11.4455 26.6377 -6.9195
104 1 -12.3733 26.6953 -7.143
105 1 -12.5646 27.7006 -6.85063
106 1 -11.6238 27.903 -6.86181
107 1 -11.9938 28.5645 -6.31308
108 1 -11.9308 28.2494 -5.39598
109 1 -11.0898 28.2692 -4.85904
110 1 -10.1783 28.303 -4.69474
111 1 -10.2487 27.5133 -5.23969
112 1 -10.1523 27.1295 -4.36385
113 1 -10.2782 26.1515 -4.59148
114 1 -9.60441 25.5057 -4.45771
115 1 -9.14848 25.9092 -3.70164
116 1 -8.72226 25.8063 -2.92429
117 1 -8.67882 25.1225 -2.29801
118 1 -9.23487 24.4148 -2.60245
119 1 -10.2021 24.3802 -2.64508
120 1 -10.1991 24.1874 -1.77966
121 1 -11.1312 24.369 -1.64038
122 1 -11.0554 25.0351 -1.02578
123 1 -11.1431 25.7819 -1.60526
124 1 -10.9883 26.6303 -2.08324
125 1 -11.5956 26.8873 -2.73796
126 1 -12.3549 26.7073 -3.20966
127 1 -12.4576 25.7595 -3.23972
128 1 -11.5764 25.6883 -3.10193
ITEM: TIMESTEP
1330000
ITEM: NUMBER OF ATOMS
128
ITEM: BOX BOUNDS mm mm mm
-6.4000000000000000e+01 6.4000000000000000e+01
-6.4000000000000000e+01 6.4000000000000000e+01
-6.4000000000000000e+01 6.4000000000000000e+01
ITEM: ATOMS id type x y z
1 1 -3.30212 16.6263 0.871049
2 1 -3.39256 15.7822 1.37947
3 1 -4.21041 15.3242 1.44601
4 1 -4.35533 14.6973 2.15832
5 1 -3.99891 14.6457 3.0953
6 1 -4.08803 15.5538 3.0818
7 1 -3.77451 15.1893 3.949
8 1 -3.99562 15.062 4.91028
9 1 -4.94326 15.0014 4.71747
10 1 -5.55254 15.1701 5.34308
11 1 -5.14727 14.643 5.9735
12 1 -5.26735 13.6842 5.92422
13 1 -6.17612 13.795 5.77568
14 1 -6.73258 12.9701 5.91157
15 1 -7.40591 12.8786 6.57439
16 1 -7.66054 12.3158 7.32888
17 1 -7.97061 12.3406 8.23909
18 1 -7.32009 12.6308 8.7927
19 1 -8.01287 13.265 8.95919
20 1 -7.34649 13.8396 8.56904
21 1 -6.46847 13.8685 8.97021
22 1 -6.5062 14.1077 9.89028
23 1 -5.97283 14.7187 10.319
24 1 -5.28161 14.2683 10.8144
25 1 -5.78918 14.5442 11.5412
26 1 -6.40946 13.868 11.446
27 1 -6.77049 13.5996 12.2838
28 1 -6.10396 12.8808 12.1328
29 1 -6.08869 12.0194 12.5176
30 1 -6.60476 11.7134 11.8302
31 1 -7.38672 11.8624 11.3269
32 1 -7.31216 10.9837 10.8671
33 1 -6.52492 10.5993 11.2014
34 1 -5.8174 9.98726 11.085
35 1 -4.95282 10.2108 10.7988
36 1 -4.90525 10.9325 10.2172
37 1 -4.02515 11.1149 9.79976
38 1 -4.08047 10.1078 9.8308
39 1 -4.76072 9.94406 9.24492
40 1 -4.87706 9.87525 8.3426
41 1 -4.82019 10.4271 7.62409
42 1 -5.65887 10.8858 7.53074
43 1 -6.08059 11.7223 7.55378
44 1 -7.0333 11.6359 7.77172
45 1 -7.67543 11.0039 7.55813
46 1 -8.20175 10.9993 6.84132
47 1 -9.05693 11.0054 6.44416
48 1 -9.97821 11.0362 6.36787
49 1 -10.9039 11.1913 6.03599
50 1 -10.5638 12.0964 5.92347
51 1 -11.4174 12.3566 5.91862
52 1 -10.9098 12.9971 5.46059
53 1 -10.6784 13.8666 5.22505
54 1 -10.6015 14.7781 5.25392
55 1 -10.2187 14.4986 6.09514
56 1 -9.29156 14.6281 6.07577
57 1 -8.43095 14.9628 5.6752
58 1 -8.53957 14.8869 4.69992
59 1 -7.69487 14.515 4.43174
60 1 -7.92174 13.6704 4.54534
61 1 -7.39026 13.6384 3.76529
62 1 -7.84745 13.2922 2.9978
63 1 -7.83284 13.574 2.06818
64 1 -8.44169 14.3329 2.10975
65 1 -7.7341 14.8778 1.79175
66 1 -8.17142 15.6619 1.9672
67 1 -8.17844 15.3706 1.07267
68 1 -9.09667 15.5011 1.03577
69 1 -9.22471 16.3787 0.977898
70 1 -9.50845 16.4433 1.86521
71 1 -9.9217 17.2787 2.10382
72 1 -9.62371 18.0271 1.57629
73 1 -9.99 18.9601 1.50362
74 1 -10.6049 19.5814 1.11216
75 1 -11.3124 19.1774 1.55888
76 1 -11.69 18.665 0.881528
77 1 -11.625 18.6874 -0.0591479
78 1 -10.9928 18.3601 -0.619565
79 1 -10.5449 18.1242 -1.39733
80 1 -10.0442 18.1944 -2.18772
81 1 -9.61067 18.8901 -2.6757
82 1 -9.67635 19.8011 -2.85635
83 1 -9.73628 20.7577 -2.61279
84 1 -10.5061 20.8008 -3.21392
85 1 -10.8981 21.5701 -3.58095
86 1 -10.1778 21.6705 -4.27659
87 1 -10.5399 22.4474 -4.58458
88 1 -10.0036 23.1636 -4.7332
89 1 -10.6563 23.7266 -5.19631
90 1 -10.3824 24.6242 -5.34344
91 1 -9.51065 24.5271 -4.93239
92 1 -8.70242 24.1212 -5.33239
93 1 -7.73853 24.1083 -5.39655
94 1 -7.01067 24.3746 -4.82408
95 1 -6.57355 23.5144 -4.93229
96 1 -5.78778 23.7013 -5.38259
97 1 -5.89832 24.5635 -5.63176
98 1 -5.73017 25.4317 -5.93434
99 1 -5.33835 26.2132 -6.30441
100 1 -5.06343 27.1114 -6.36197
101 1 -5.23764 26.7443 -5.49889
102 1 -5.85319 27.3634 -5.14561
103 1 -6.43097 26.8029 -5.61981
104 1 -6.10154 27.0593 -6.45147
105 1 -6.73735 27.7468 -6.13818
106 1 -6.93268 28.25 -5.39001
107 1 -7.36169 27.4877 -5.01488
108 1 -8.18912 27.1617 -5.24663
109 1 -8.68465 27.9311 -5.17213
110 1 -8.63618 28.6002 -4.53619
111 1 -8.93967 29.4965 -4.67629
112 1 -9.07606 30.3038 -4.27276
113 1 -8.70273 30.4652 -3.471
114 1 -8.88677 31.1628 -2.8292
115 1 -8.49191 31.0964 -1.914
116 1 -8.98257 30.3067 -1.57348
117 1 -9.63029 29.7341 -1.30479
118 1 -10.0486 29.2468 -1.97726
119 1 -10.8732 29.4084 -1.61107
120 1 -11.6187 29.6591 -1.1491
121 1 -12.1656 28.8694 -1.07737
122 1 -12.9682 28.4987 -1.25262
123 1 -13.6478 28.177 -1.86663
124 1 -14.3986 28.2965 -2.34422
125 1 -13.6626 28.8409 -2.73859
126 1 -13.7769 29.1922 -1.85118
127 1 -14.3843 29.9188 -1.71937
128 1 -14.3947 29.6337 -2.59567
ITEM: TIMESTEP
1340000
ITEM: NUMBER OF ATOMS
128
ITEM: BOX BOUNDS mm mm mm
-6.4000000000000000e+01 6.4000000000000000e+01
-6.4000000000000000e+01 6.4000000000000000e+01
-6.4000000000000000e+01 6.4000000000000000e+01
ITEM: ATOMS id type x y z
1 1 -5.91994 19.04 7.19194
2 1 -6.43542 18.2007 7.3278
3 1 -7.21144 17.6322 7.42652
4 1 -7.59224 16.797 7.32707
5 1 -7.40868 15.9083 7.54405
6 1 -7.06437 15.3764 6.85441
7 1 -7.39873 14.823 6.1573
8 1 -6.54559 14.7015 5.78426
9 1 -5.82654 14.0397 5.57119
10 1 -5.19786 13.6083 6.10423
11 1 -4.4747 13.0398 6.01194
12 1 -3.73002 13.5038 6.41932
13 1 -3.56581 13.3267 7.33846
14 1 -2.7611 13.7104 7.3055
15 1 -2.72988 13.2376 8.10268
16 1 -3.24922 12.8113 8.78148
17 1 -4.00764 12.7749 9.29987
18 1 -4.20443 12.4164 8.49525
19 1 -4.88551 11.9113 8.9205
20 1 -5.49923 12.5382 9.19228
21 1 -5.83541 13.0033 9.98193
22 1 -5.62531 12.7801 10.9194
23 1 -6.23301 12.1017 11.0585
24 1 -6.92774 11.8373 10.4949
25 1 -6.8306 11.8868 9.52374
26 1 -7.60075 11.4073 9.29844
27 1 -7.91471 10.8186 9.96543
28 1 -8.66273 11.104 10.5343
29 1 -9.35468 11.2945 11.1366
30 1 -9.28917 11.0207 12.0459
31 1 -10.1227 10.9684 12.4992
32 1 -9.69158 11.2376 13.3019
33 1 -9.07029 10.6074 13.7191
34 1 -8.33658 11.1677 13.8332
35 1 -8.14702 10.7662 12.9699
36 1 -7.43178 10.8203 12.3964
37 1 -6.99956 9.98819 12.5445
38 1 -6.92284 9.03417 12.4889
39 1 -6.86333 8.32889 11.8007
40 1 -6.07277 8.78071 11.6999
41 1 -6.46227 9.56302 11.2546
42 1 -5.83134 9.88049 10.7108
43 1 -5.11808 10.5884 10.8299
44 1 -4.18175 10.4869 10.8094
45 1 -3.30048 10.539 10.4819
46 1 -3.91826 11.0987 9.94751
47 1 -4.22642 10.9351 9.08271
48 1 -5.07856 10.4576 9.17723
49 1 -5.82449 10.7225 8.73422
50 1 -5.90003 10.2499 7.91212
51 1 -6.67931 10.0394 8.41589
52 1 -7.07137 10.6104 7.79767
53 1 -7.53925 11.253 7.32341
54 1 -8.21466 11.6895 6.82961
55 1 -8.62835 12.3832 7.24879
56 1 -8.58871 12.7827 8.13058
57 1 -7.71261 12.4667 7.96373
58 1 -7.45314 13.3472 7.68567
59 1 -7.68966 13.5493 6.82166
60 1 -8.5503 14.0135 6.67476
61 1 -9.28133 13.3629 6.65155
62 1 -9.69502 13.5148 5.85071
63 1 -10.4898 13.8439 5.4401
64 1 -10.3178 14.5445 4.83954
65 1 -10.6579 15.1632 4.22447
66 1 -10.9008 14.7782 3.3758
67 1 -11.0133 14.9483 2.44998
68 1 -10.7887 15.179 1.58167
69 1 -10.7145 15.7687 0.83533
70 1 -10.6196 16.5508 0.401775
71 1 -10.6845 17.4669 0.758528
72 1 -10.7934 17.3963 -0.142675
73 1 -9.93249 17.2908 -0.413936
74 1 -10.0858 18.1864 -0.694612
75 1 -10.3652 19.072 -0.436506
76 1 -10.1138 19.7798 -0.983621
77 1 -9.38943 20.4945 -0.994743
78 1 -8.86292 19.7951 -1.38413
79 1 -8.06885 19.3754 -1.75711
80 1 -7.87279 19.8469 -2.56813
81 1 -8.45025 20.0112 -3.31716
82 1 -8.56944 20.6429 -3.99105
83 1 -7.93208 21.1428 -4.44044
84 1 -7.1334 21.2088 -4.03085
85 1 -7.24854 21.9331 -3.42321
86 1 -7.64561 22.7315 -3.73236
87 1 -7.27012 22.9975 -2.90502
88 1 -7.87506 23.4969 -2.34775
89 1 -8.57426 23.0761 -1.95113
90 1 -8.46781 22.8388 -2.86918
91 1 -9.17711 23.3788 -2.71663
92 1 -9.98803 23.0483 -2.60545
93 1 -10.3575 23.4917 -3.38331
94 1 -11.281 23.2975 -3.16531
95 1 -11.0282 23.4112 -2.26432
96 1 -11.4637 23.0437 -1.5045
97 1 -11.6884 22.5586 -0.773434
98 1 -11.6 23.4105 -0.45979
99 1 -11.4158 24.2416 -0.0708189
100 1 -10.9667 23.6736 0.513635
101 1 -10.1975 23.1911 0.239066
102 1 -9.3619 23.6009 0.588726
103 1 -8.78692 23.3559 1.31074
104 1 -8.24196 23.7879 0.633743
105 1 -7.31987 24.0623 0.526835
106 1 -6.48101 24.5442 0.31521
107 1 -6.71075 25.5149 0.345583
108 1 -6.79807 26.4167 0.113255
109 1 -6.58478 27.3664 0.184943
110 1 -6.3829 27.9648 0.907699
111 1 -6.61652 28.5727 1.55854
112 1 -7.51722 28.7997 1.62388
113 1 -7.85226 28.1484 2.17808
114 1 -8.58888 28.6046 2.60129
115 1 -8.41954 29.3689 3.09902
116 1 -8.80756 30.216 2.97198
117 1 -9.11061 30.0013 3.81525
118 1 -9.27117 30.2739 4.72463
119 1 -9.79641 30.5248 5.51391
120 1 -10.4048 30.4362 4.85872
121 1 -11.0646 30.5651 4.18347
122 1 -11.258 31.0175 3.40761
123 1 -12.054 31.1189 3.8714
124 1 -12.5497 31.946 3.73343
125 1 -13.356 32.0139 3.32971
126 1 -13.1802 31.3638 2.71631
127 1 -12.3601 30.8868 2.677
128 1 -11.8581 30.0448 2.84149
ITEM: TIMESTEP
1350000
ITEM: NUMBER OF ATOMS
128
ITEM: BOX BOUNDS mm mm mm
-6.4000000000000000e+01 6.4000000000000000e+01
-6.4000000000000000e+01 6.4000000000000000e+01
-6.4000000000000000e+01 6.4000000000000000e+01
ITEM: ATOMS id type x y z
1 1 -9.72749 17.0015 4.97845
2 1 -8.88141 16.6054 4.83276
3 1 -8.18024 17.1513 4.49431
4 1 -7.74426 17.0025 5.33991
5 1 -7.10745 16.3523 5.19262
6 1 -6.88103 15.7616 5.88221
7 1 -6.26934 15.637 6.5955
8 1 -5.63257 16.2101 6.96621
9 1 -5.33798 15.9537 7.81747
10 1 -4.59577 15.5145 8.24397
11 1 -4.17747 14.8939 8.8038
12 1 -3.94532 14.1115 8.43629
13 1 -4.69338 13.5841 8.2858
14 1 -5.59742 13.3937 8.19603
15 1 -6.45945 13.2026 8.34255
16 1 -7.29823 12.7934 8.42991
17 1 -8.21187 12.9139 8.44338
18 1 -8.46346 12.5838 9.34558
19 1 -8.20392 12.8337 10.2767
20 1 -7.63762 12.8549 10.9712
21 1 -7.05928 12.2082 11.3646
22 1 -6.66262 11.3491 11.4037
23 1 -6.51322 10.7201 12.0419
24 1 -6.76704 10.3028 11.2106
25 1 -6.38478 9.55953 10.8353
26 1 -5.87723 9.2294 10.0839
27 1 -5.72936 8.7589 9.20928
28 1 -6.41229 8.11727 9.46067
29 1 -6.60097 7.39721 10.063
30 1 -6.67512 6.75853 10.7457
31 1 -7.44017 6.60411 11.306
32 1 -7.75224 7.42162 11.5099