ITEM: TIMESTEP
1540000
ITEM: NUMBER OF ATOMS
128
ITEM: BOX BOUNDS mm mm mm
-6.4000000000000000e+01 6.4000000000000000e+01
-6.4000000000000000e+01 6.4000000000000000e+01
-6.4000000000000000e+01 6.4000000000000000e+01
ITEM: ATOMS id type x y z
1 1 -4.9102 15.2786 -1.64656
2 1 -4.32722 14.5523 -2.02973
3 1 -3.72551 15.2633 -2.13161
4 1 -2.84223 15.4824 -1.9062
5 1 -2.79367 16.0525 -1.17533
6 1 -2.20109 16.7723 -0.909296
7 1 -2.57248 16.8932 -0.080321
8 1 -1.74266 17.3545 0.0976809
9 1 -0.969553 17.6646 0.505248
10 1 -1.13864 18.6176 0.447646
11 1 -1.81027 19.2683 0.13899
12 1 -1.67465 19.6715 -0.703863
13 1 -2.18966 20.3197 -0.313084
14 1 -3.03254 20.5763 -0.58135
15 1 -3.37154 21.4485 -0.700382
16 1 -3.4425 22.3287 -1.03224
17 1 -3.69671 23.0037 -1.59599
18 1 -4.61513 22.738 -1.52974
19 1 -4.98086 22.5047 -0.679378
20 1 -5.19124 23.3681 -0.372564
21 1 -5.92318 23.4714 0.247995
22 1 -6.82264 23.832 0.133776
23 1 -7.56379 23.3485 0.59193
24 1 -7.86933 23.6374 1.4138
25 1 -6.95157 23.4664 1.44093
26 1 -6.10949 23.1275 1.63648
27 1 -5.19378 22.9438 1.71009
28 1 -4.26359 22.6498 1.59965
29 1 -3.73484 22.6598 2.3965
30 1 -3.55915 22.8142 3.31042
31 1 -3.42944 22.8522 4.22932
32 1 -3.44198 23.5944 4.78785
33 1 -2.58221 23.5788 5.10184
34 1 -2.82122 23.6411 6.01558
35 1 -3.12894 23.414 6.87849
36 1 -2.48702 23.1319 7.51291
37 1 -1.95008 22.5914 6.91582
38 1 -1.27418 22.1174 6.49774
39 1 -0.397583 22.3436 6.72356
40 1 -0.0114437 21.5144 6.97733
41 1 -0.282235 20.9006 6.31889
42 1 -1.09643 20.7581 6.74229
43 1 -1.26579 19.9864 7.18966
44 1 -2.00829 19.85 7.70875
45 1 -2.91004 19.4867 7.73461
46 1 -3.45077 18.8234 7.36097
47 1 -3.12064 19.3059 6.58832
48 1 -3.63012 19.7163 5.86365
49 1 -4.57132 19.8138 6.15769
50 1 -5.13016 19.6136 6.87828
51 1 -5.80363 20.2306 6.64683
52 1 -6.64301 20.1227 6.95625
53 1 -7.46617 19.9451 7.32121
54 1 -8.23092 19.4627 7.2059
55 1 -8.73128 18.8141 7.71924
56 1 -8.11371 18.1493 7.9067
57 1 -7.87976 17.2627 7.96986
58 1 -8.23894 16.9516 8.74046
59 1 -8.51014 16.3625 8.06845
60 1 -9.20119 16.9198 7.86475
61 1 -9.95117 17.4968 7.94666
62 1 -10.2932 18.3855 8.14115
63 1 -10.7907 19.194 8.16992
64 1 -11.499 18.9788 7.54917
65 1 -11.4274 18.3922 6.78518
66 1 -11.5552 17.9404 5.98193
67 1 -11.0703 17.2581 5.45868
68 1 -11.2041 16.4737 4.89266
69 1 -11.5318 17.1307 4.25659
70 1 -12.1913 17.2919 3.5485
71 1 -12.2102 16.3847 3.41757
72 1 -11.726 15.5801 3.34322
73 1 -10.9818 15.6295 2.73289
74 1 -11.7576 15.7181 2.13662
75 1 -12.4568 15.467 2.67941
76 1 -12.6961 14.551 2.67092
77 1 -12.4704 14.5173 3.59379
78 1 -12.8464 14.7675 4.3866
79 1 -13.184 14.7466 5.21698
80 1 -13.652 14.4045 6.05168
81 1 -14.3441 13.8328 5.74753
82 1 -15.0394 13.5386 5.22923
83 1 -14.6821 12.7337 5.57866
84 1 -14.5433 11.9987 5.05622
85 1 -14.758 11.5596 4.26573
86 1 -13.9484 11.4498 3.7952
87 1 -13.9295 10.8308 3.05533
88 1 -14.6632 10.4652 3.49576
89 1 -14.4269 9.94882 2.79123
90 1 -13.828 9.70721 3.50827
91 1 -13.7882 10.2806 4.26136
92 1 -13.1146 10.8986 4.5247
93 1 -13.5233 11.5139 5.09654
94 1 -12.9011 12.12 4.59312
95 1 -13.7222 12.5664 4.50425
96 1 -14.3968 12.4801 3.77328
97 1 -15.3274 12.7082 3.98794
98 1 -15.6434 12.4556 3.0875
99 1 -16.0314 11.8116 2.44974
100 1 -16.9278 11.9222 2.76176
101 1 -17.2282 11.1641 3.24486
102 1 -17.4285 10.5138 2.61906
103 1 -17.3396 10.1496 1.74011
104 1 -17.5247 9.23149 1.82356
105 1 -16.9157 8.50131 1.84122
106 1 -16.7294 9.1229 1.11769
107 1 -16.0624 8.54788 0.891392
108 1 -15.9151 9.33403 0.469989
109 1 -15.2923 9.3546 -0.253217
110 1 -14.8268 10.161 -0.179466
111 1 -14.5988 10.9998 -0.515847
112 1 -13.8309 10.7602 -0.995609
113 1 -13.6672 10.3073 -1.78489
114 1 -13.6598 9.91643 -2.66797
115 1 -12.9492 10.2137 -3.23349
116 1 -12.5079 11.0976 -3.32381
117 1 -12.0208 11.6767 -2.81422
118 1 -11.2419 11.9726 -2.43181
119 1 -10.9815 12.5879 -1.77815
120 1 -11.0271 13.3224 -1.14833
121 1 -10.1984 13.2173 -0.622344
122 1 -9.71734 13.6214 0.130419
123 1 -8.90186 13.5046 -0.331745
124 1 -8.30136 14.3062 -0.214314
125 1 -7.40044 14.2416 -0.540234
126 1 -6.61644 13.7536 -0.359443
127 1 -6.51449 13.1706 -1.00783
128 1 -6.59327 12.478 -0.376456
ITEM: TIMESTEP
1550000
ITEM: NUMBER OF ATOMS
128
ITEM: BOX BOUNDS mm mm mm
-6.4000000000000000e+01 6.4000000000000000e+01
-6.4000000000000000e+01 6.4000000000000000e+01
-6.4000000000000000e+01 6.4000000000000000e+01
ITEM: ATOMS id type x y z
1 1 -0.814398 18.9964 -4.94758
2 1 -1.17043 18.2072 -4.62024
3 1 -0.513492 17.5543 -4.86438
4 1 -0.424745 17.7203 -3.93114
5 1 0.248605 17.3413 -3.40874
6 1 0.497184 16.7898 -4.16384
7 1 1.15524 16.6711 -4.83765
8 1 1.24099 16.0744 -5.52775
9 1 1.18006 15.7708 -6.3488
10 1 1.84604 15.4197 -6.91267
11 1 1.83551 14.5837 -7.37997
12 1 2.72242 14.3218 -7.34659
13 1 2.90277 15.0083 -6.70823
14 1 2.12407 14.7676 -6.18326
15 1 1.5458 14.6624 -5.48561
16 1 2.15691 14.088 -5.17701
17 1 2.27026 13.4384 -5.83716
18 1 3.15281 13.2711 -5.77318
19 1 3.22449 13.1374 -4.85028
20 1 3.2297 12.5376 -4.04499
21 1 3.72154 12.1092 -3.40433
22 1 4.4392 11.9199 -3.979
23 1 5.04563 12.4055 -3.42188
24 1 4.47742 12.9978 -3.03477
25 1 4.44579 12.7639 -2.09378
26 1 4.05885 13.1954 -1.38162
27 1 4.0788 13.7908 -0.670922
28 1 3.6659 13.6765 0.183477
29 1 3.48844 13.4139 1.09464
30 1 2.9181 12.9989 1.76995
31 1 2.18135 13.5879 1.90375
32 1 1.50702 13.6466 2.51472
33 1 1.05947 14.1863 3.15778
34 1 0.63294 14.8872 2.73269
35 1 -0.243609 14.7044 2.40201
36 1 -0.299442 15.224 1.65733
37 1 -1.23185 15.1433 1.83489
38 1 -1.38698 16.0616 1.64716
39 1 -2.08645 16.7183 1.90536
40 1 -2.8853 16.3839 2.27826
41 1 -3.59061 16.8609 2.61591
42 1 -4.25846 17.2857 3.11162
43 1 -3.65584 17.3216 3.84075
44 1 -3.10835 17.5418 4.4972
45 1 -2.49363 16.9194 4.09858
46 1 -2.10858 16.3454 3.42664
47 1 -1.45037 15.6862 3.11436
48 1 -1.45673 14.766 3.55258
49 1 -1.28236 15.0269 4.44453
50 1 -2.11615 15.2725 4.8199
51 1 -2.76249 15.0757 4.15761
52 1 -3.04529 15.8066 4.6909
53 1 -3.94069 15.9398 4.53742
54 1 -4.30644 16.1059 5.43552
55 1 -4.99147 16.6045 5.01869
56 1 -4.76819 17.2337 5.72032
57 1 -5.39535 17.3983 6.39144
58 1 -5.91272 16.9839 7.07868
59 1 -6.15452 16.0919 6.98475
60 1 -6.74769 15.4018 7.19683
61 1 -7.56625 15.1048 6.98057
62 1 -8.43606 15.1657 7.32664
63 1 -9.23926 15.5647 7.05189
64 1 -9.43141 16.1887 7.71363
65 1 -8.7295 16.8205 7.83381
66 1 -8.67131 17.733 8.01028
67 1 -8.29126 18.1122 8.76947
68 1 -7.98284 18.8113 9.33315
69 1 -7.45879 19.5057 9.09473
70 1 -6.73806 18.973 8.7527
71 1 -6.55935 19.2185 7.87929
72 1 -7.33827 19.5671 7.43694
73 1 -8.21219 19.177 7.53695
74 1 -8.70297 18.9683 6.7015
75 1 -9.29638 19.6282 6.38547
76 1 -9.04633 20.1533 5.62034
77 1 -9.37526 20.4641 4.76328
78 1 -9.99815 20.9346 5.34296
79 1 -10.8106 20.6334 5.64004
80 1 -10.2129 19.9055 5.45701
81 1 -11.0088 19.6736 5.01309
82 1 -11.4771 19.0787 4.46085
83 1 -11.5946 18.4129 3.8072
84 1 -12.0057 17.9449 3.09181
85 1 -12.5532 17.1897 2.90333
86 1 -12.9566 17.2823 3.66784
87 1 -13.8755 17.2014 3.41268
88 1 -13.7198 17.9757 2.88836
89 1 -13.6243 18.913 2.79435
90 1 -13.4128 19.0729 1.90295
91 1 -12.591 18.5784 1.75382
92 1 -11.7023 18.7386 1.86374
93 1 -11.5953 17.82 1.73349
94 1 -10.837 17.8124 1.05075
95 1 -10.1301 17.6521 0.455866
96 1 -10.1814 16.9351 -0.15397
97 1 -9.67204 16.2909 -0.609223
98 1 -9.74252 15.3805 -0.555529
99 1 -10.0389 14.5372 -0.355818
100 1 -10.7161 15.1479 -0.114833
101 1 -11.4115 14.4615 -0.189715
102 1 -12.1697 14.8637 -0.640142
103 1 -12.4505 15.5371 -1.21909
104 1 -12.8488 14.7508 -1.53987
105 1 -13.6884 14.5257 -1.2324
106 1 -13.8264 14.6929 -2.17825
107 1 -13.151 14.1457 -2.60726
108 1 -13.353 13.7849 -3.43849
109 1 -13.3165 13.0245 -4.03733
110 1 -12.5332 12.5695 -3.7057
111 1 -12.3918 13.4291 -3.84318
112 1 -12.3242 13.573 -2.90751
113 1 -12.1483 12.6781 -2.74037
114 1 -12.2862 11.7501 -2.68144
115 1 -12.0457 11.0181 -3.19053
116 1 -11.5837 11.0071 -4.01976
117 1 -10.897 10.8371 -3.4493
118 1 -10.1781 11.3491 -3.10504
119 1 -9.50264 11.9233 -2.7868
120 1 -9.85216 12.1635 -1.97589
121 1 -10.5645 12.14 -1.34692
122 1 -11.1493 11.4512 -1.31014
123 1 -11.2196 10.5085 -1.23427
124 1 -11.5146 9.97469 -0.520279
125 1 -11.0648 10.0331 0.311978
126 1 -11.6883 10.045 0.972091
127 1 -10.7811 10.2869 1.25733
128 1 -10.5768 11.0205 1.81713
ITEM: TIMESTEP
1560000
ITEM: NUMBER OF ATOMS
128
ITEM: BOX BOUNDS mm mm mm
-6.4000000000000000e+01 6.4000000000000000e+01
-6.4000000000000000e+01 6.4000000000000000e+01
-6.4000000000000000e+01 6.4000000000000000e+01
ITEM: ATOMS id type x y z
1 1 -3.67561 15.2514 -1.54661
2 1 -3.9476 15.8146 -2.22816
3 1 -3.3507 16.5747 -2.20626
4 1 -2.61069 16.5772 -2.76286
5 1 -2.04202 15.936 -3.16637
6 1 -2.23306 15.5202 -2.28634
7 1 -1.35062 15.3725 -2.09642
8 1 -0.383858 15.3727 -1.86553
9 1 0.457656 15.706 -2.05403
10 1 1.36066 15.8664 -2.22048
11 1 1.84023 15.4579 -1.58053
12 1 2.41377 14.6572 -1.33893
13 1 2.88396 13.8719 -1.13336
14 1 2.71326 13.4578 -0.240856
15 1 2.51433 12.6822 0.352532
16 1 2.19932 12.2192 1.10189
17 1 2.06366 12.8902 1.81234
18 1 1.54022 13.4764 1.21606
19 1 1.04902 13.7867 1.94417
20 1 1.57149 13.8042 2.69606
21 1 1.78806 13.9207 3.59022
22 1 2.0999 14.1417 4.45485
23 1 1.84459 13.3567 4.95253
24 1 1.31034 13.251 5.71868
25 1 0.581076 12.5249 5.83417
26 1 0.00970346 12.0893 5.16463
27 1 -0.181267 12.4343 4.32619
28 1 -0.612896 11.6675 4.34509
29 1 -1.46523 11.5806 4.83299
30 1 -2.43513 11.616 4.73816
31 1 -2.508 12.5073 5.1114
32 1 -2.11899 12.3817 4.21232
33 1 -1.39406 12.693 3.71707
34 1 -2.13725 12.8707 3.2458
35 1 -2.97604 12.7224 3.66746
36 1 -3.46054 12.7776 4.44839
37 1 -3.48761 12.9901 5.34363
38 1 -2.74594 13.1958 5.83524
39 1 -2.06854 13.8079 6.12868
40 1 -2.39277 14.6457 5.92241
41 1 -2.50612 15.627 5.82996
42 1 -3.05428 15.4472 5.1089
43 1 -3.87366 14.9791 5.21064
44 1 -4.43518 15.3049 5.87425
45 1 -4.11182 15.9936 5.32076
46 1 -4.5619 16.6313 5.9068
47 1 -5.15529 17.3258 5.59797
48 1 -4.91705 17.936 4.88665
49 1 -5.04735 17.0857 4.50118
50 1 -5.95928 16.828 4.62905
51 1 -6.78842 17.3094 4.68331
52 1 -7.22898 17.1162 5.50739
53 1 -8.08161 17.2802 5.3264
54 1 -8.71589 17.3266 6.00767
55 1 -8.96044 18.1748 5.63112
56 1 -9.4489 18.9062 5.41083
57 1 -10.1616 19.4681 5.77221
58 1 -10.1858 20.3067 6.21017
59 1 -9.39197 20.5704 5.84348
60 1 -10.1622 20.8333 5.17073
61 1 -10.8718 20.192 5.03968
62 1 -11.0507 20.3941 4.15335
63 1 -10.1448 20.2863 4.19451
64 1 -9.79054 20.9944 3.72874
65 1 -9.22523 20.5908 3.04647
66 1 -8.36532 20.9182 2.99062
67 1 -7.88888 21.4555 3.65598
68 1 -8.27435 22.2798 3.96216
69 1 -8.09547 22.8099 4.69489
70 1 -8.12878 22.4934 5.6597
71 1 -8.25239 21.6795 6.07758
72 1 -8.01589 21.247 5.26106
73 1 -8.31608 20.3522 5.35264
74 1 -7.7451 19.6427 5.56497
75 1 -6.90164 19.4518 5.1167
76 1 -7.48879 18.7698 4.8624
77 1 -7.90422 18.0356 4.49509
78 1 -7.78167 17.8781 3.5602
79 1 -8.39785 17.313 4.02072
80 1 -9.25935 17.3805 4.32154
81 1 -10.1428 17.5334 4.00248
82 1 -10.7198 17.5907 3.23231
83 1 -9.89072 17.8059 2.80352
84 1 -9.27144 17.3533 2.21424
85 1 -8.42963 17.8382 2.27606
86 1 -9.18123 18.4309 2.45892
87 1 -9.87637 18.6275 1.84112
88 1 -9.83479 17.9832 1.17739
89 1 -9.61163 17.2581 0.613752
90 1 -10.0464 16.4878 0.552499
91 1 -10.7621 16.4115 1.25301
92 1 -11.3074 16.4233 0.487344
93 1 -11.947 16.0172 -0.0403752
94 1 -11.9521 16.0973 -0.970501
95 1 -11.1075 16.2006 -1.34991
96 1 -10.5018 16.7486 -1.75908
97 1 -10.0431 16.6965 -2.54199
98 1 -10.4933 16.2197 -3.22274
99 1 -11.0552 16.3043 -4.00583
100 1 -11.5067 16.0542 -3.23543
101 1 -11.2599 15.244 -2.71416
102 1 -10.9095 14.4971 -2.28455
103 1 -11.4083 13.6878 -2.05083
104 1 -12.2938 13.5659 -1.84742
105 1 -12.3 12.7837 -2.39433
106 1 -12.7845 13.0957 -3.09738
107 1 -13.5231 13.5289 -2.69712
108 1 -14.3655 13.8351 -3.00154
109 1 -14.565 13.4475 -3.81248
110 1 -14.8811 12.5893 -3.73332
111 1 -14.2612 12.2482 -4.37886
112 1 -14.972 11.8223 -4.82231
113 1 -14.9247 11.3291 -5.62169
114 1 -15.1677 11.4847 -6.53384
115 1 -15.2385 10.6729 -7.05991
116 1 -16.1882 10.5076 -7.1701
117 1 -16.8592 11.1604 -7.05074
118 1 -17.2668 10.9445 -6.26161
119 1 -18.0816 11.0242 -6.67863
120 1 -19.0537 11.1132 -6.86708
121 1 -19.3042 10.6269 -6.0754
122 1 -18.6316 10.0666 -5.66298
123 1 -18.0867 9.34541 -5.52422
124 1 -17.239 9.70101 -5.56956
125 1 -16.5719 10.1411 -5.0548
126 1 -16.5388 9.5699 -4.28779
127 1 -15.6088 9.3816 -4.26364
128 1 -15.0061 8.62717 -4.37819
ITEM: TIMESTEP
1570000
ITEM: NUMBER OF ATOMS
128
ITEM: BOX BOUNDS mm mm mm
-6.4000000000000000e+01 6.4000000000000000e+01
-6.4000000000000000e+01 6.4000000000000000e+01
-6.4000000000000000e+01 6.4000000000000000e+01
ITEM: ATOMS id type x y z
1 1 5.51056 17.6697 -0.392292
2 1 5.28415 16.8999 0.178009
3 1 4.61762 16.3354 -0.238924
4 1 4.17772 15.5454 -0.605923
5 1 3.70087 14.8632 -1.10202
6 1 2.88935 14.4063 -1.3116
7 1 3.33445 14.492 -2.18655
8 1 3.55422 15.397 -2.36029
9 1 3.41001 15.9452 -1.62651
10 1 2.51471 16.0878 -1.88873
11 1 2.41641 15.5603 -2.62678
12 1 1.88266 14.8769 -3.06324
13 1 2.22292 14.0032 -3.04454
14 1 1.84794 13.3883 -2.45309
15 1 1.33138 13.1604 -1.66491
16 1 0.84228 13.675 -2.22947
17 1 0.108259 12.9947 -2.15283
18 1 -0.678825 12.857 -1.6728
19 1 -1.21078 12.4695 -0.965528
20 1 -1.95279 12.4856 -1.61645
21 1 -1.83306 12.6815 -2.51118
22 1 -2.59898 13.2339 -2.52926
23 1 -3.52402 13.1289 -2.30439
24 1 -4.22261 12.9174 -1.69734
25 1 -5.0928 12.6215 -1.59655
26 1 -5.2035 13.5473 -1.5086
27 1 -4.85979 13.9271 -0.680329
28 1 -5.17419 14.8265 -0.539772
29 1 -5.2256 14.3868 0.238941
30 1 -5.6671 14.0964 1.01344
31 1 -6.23754 14.7678 1.28823
32 1 -5.60251 15.3134 1.67836
33 1 -5.36325 16.2188 1.75759
34 1 -4.50524 16.0829 1.34636
35 1 -3.65614 16.4644 1.57333
36 1 -3.51526 17.4019 1.86372
37 1 -3.28242 18.1738 2.41389
38 1 -3.16063 17.6635 3.23259
39 1 -2.49712 18.1654 3.6189
40 1 -2.324 18.564 2.7616
41 1 -2.07241 19.4188 2.4344
42 1 -2.17786 20.1501 2.98694
43 1 -2.9524 19.8024 3.31049
44 1 -3.67936 20.199 2.83251
45 1 -3.40636 21.0131 2.39046
46 1 -3.92968 21.7734 2.37497
47 1 -3.71871 22.4024 1.72707
48 1 -4.15729 22.8762 2.41026
49 1 -4.56547 23.7978 2.33172
50 1 -3.81974 24.2826 2.56401
51 1 -4.19312 23.907 3.31136
52 1 -4.67044 24.7089 3.47362
53 1 -4.32353 25.4069 3.97811
54 1 -5.18376 25.8658 4.14045
55 1 -5.71449 26.0982 4.86598
56 1 -6.3448 26.1507 4.20922
57 1 -6.7601 25.3573 4.1425
58 1 -6.3225 25.1656 3.3625
59 1 -6.07578 24.5343 4.04967
60 1 -6.18847 23.6538 3.68325
61 1 -6.63584 23.3727 2.89706
62 1 -7.53958 23.4147 3.14802
63 1 -7.9956 23.5572 2.37795
64 1 -8.59351 24.2903 2.03008
65 1 -9.29973 23.6428 1.91788
66 1 -10.2369 23.4872 2.09741
67 1 -10.2544 22.4437 2.02435
68 1 -9.90856 22.377 1.10795
69 1 -9.16021 21.9297 0.866549
70 1 -8.94435 21.0619 0.629485
71 1 -8.30401 20.3565 0.523451
72 1 -8.55612 19.6241 -0.0707592
73 1 -7.97951 19.7394 -0.870977
74 1 -8.64083 19.9817 -1.54983
75 1 -9.23738 19.4485 -1.06306
76 1 -9.17896 18.6026 -0.79398
77 1 -8.29728 18.6554 -0.472821
78 1 -8.8995 18.3185 0.152065
79 1 -8.80486 17.4683 -0.239741
80 1 -9.64363 17.0177 -0.590996
81 1 -10.269 16.7609 -1.17692
82 1 -11.0391 16.4007 -1.45972
83 1 -11.899 16.0595 -1.14074
84 1 -12.8106 16.1873 -1.056
85 1 -12.4012 16.5582 -0.293299
86 1 -12.9736 16.9927 0.324194
87 1 -12.5 16.6959 1.06106
88 1 -13.0188 16.9351 1.90181
89 1 -13.5033 16.2503 1.48985
90 1 -14.2789 16.5267 1.00155
91 1 -14.7045 17.0999 0.38348
92 1 -14.4027 18.0505 0.380215
93 1 -15.0496 18.4818 0.920767
94 1 -15.876 18.2781 0.557293
95 1 -16.6193 17.6679 0.375251
96 1 -17.1063 17.8472 -0.441108
97 1 -17.131 17.6644 -1.4029
98 1 -18.0815 17.681 -1.56469
99 1 -17.9954 18.5034 -2.06244
100 1 -17.6458 19.115 -2.69602
101 1 -17.7134 18.2765 -3.21336
102 1 -18.5008 17.9928 -2.83558
103 1 -19.2936 18.2494 -3.36004
104 1 -20.0528 17.9898 -3.81831
105 1 -19.889 17.2523 -4.3773
106 1 -19.2162 17.0357 -3.77155
107 1 -18.5677 16.5107 -4.17851
108 1 -19.1513 15.8304 -3.85601
109 1 -18.6083 15.0823 -3.80328
110 1 -17.6936 14.8623 -3.99959
111 1 -17.3806 15.7112 -4.16051
112 1 -17.3354 16.3983 -4.83634
113 1 -16.4674 16.6269 -5.13214
114 1 -16.9641 17.2849 -5.6601
115 1 -17.5572 17.8876 -6.14387
116 1 -18.0518 17.1508 -6.01747
117 1 -18.3198 16.2742 -6.23942
118 1 -19.1477 16.8242 -6.57479
119 1 -19.5187 17.6702 -6.69035
120 1 -19.8996 18.536 -6.80085
121 1 -19.2289 18.5806 -6.16043
122 1 -18.6948 19.333 -5.9158
123 1 -17.9709 19.6316 -6.38351
124 1 -17.4818 20.4014 -6.20963
125 1 -17.2018 19.7743 -5.52449
126 1 -16.5749 20.4437 -5.77522
127 1 -16.827 20.8317 -4.94554
128 1 -17.3106 20.6384 -4.16698
ITEM: TIMESTEP
1580000
ITEM: NUMBER OF ATOMS
128
ITEM: BOX BOUNDS mm mm mm
-6.4000000000000000e+01 6.4000000000000000e+01
-6.4000000000000000e+01 6.4000000000000000e+01
-6.4000000000000000e+01 6.4000000000000000e+01
ITEM: ATOMS id type x y z
1 1 0.935223 17.0793 -4.59498
2 1 1.31446 17.5168 -5.26252
3 1 2.12676 18.0825 -5.05315
4 1 2.58673 18.5942 -4.43155
5 1 3.03085 19.3856 -4.06596
6 1 2.89808 20.3174 -3.78824
7 1 2.93909 20.5841 -2.91484
8 1 3.05295 20.4715 -1.99115
9 1 3.15199 19.5275 -2.15387
10 1 3.6643 18.9615 -1.64293
11 1 2.96311 18.3976 -1.47684
12 1 2.03988 18.3449 -1.4291
13 1 2.38317 18.1168 -2.31821
14 1 2.88003 17.6482 -2.90713
15 1 3.77171 17.9251 -2.62223
16 1 3.73056 17.6349 -1.72516
17 1 3.34725 16.7955 -1.89073
18 1 2.80688 16.166 -2.21673
19 1 2.45108 15.6087 -1.51568
20 1 2.28963 14.7258 -1.73507
21 1 1.4045 14.6151 -2.0826
22 1 1.6512 14.6334 -2.9795
23 1 2.6005 14.2689 -3.0893
24 1 3.48692 14.0755 -2.93675
25 1 3.88361 13.6468 -2.17901
26 1 3.14519 13.1614 -1.78155
27 1 3.64199 13.0464 -1.00614
28 1 3.47237 13.4092 -0.165009
29 1 2.56696 13.8161 -0.0202836
30 1 1.88789 14.1955 0.479117
31 1 1.4535 13.9459 1.22853
32 1 1.9904 14.6923 1.45486
33 1 2.28181 15.4824 1.02318
34 1 2.0054 16.3893 0.969198
35 1 1.50044 16.8615 1.57458
36 1 0.998073 17.5957 1.30715
37 1 0.454624 18.2131 0.879363
38 1 -0.136603 18.8646 1.30702
39 1 -0.205558 19.4588 2.06481
40 1 0.263631 20.0847 2.62136
41 1 -0.457384 20.7235 2.64898
42 1 -0.358104 21.6473 2.5536
43 1 -0.574795 21.689 1.64608
44 1 -1.13651 22.211 1.12431
45 1 -1.21665 23.0894 1.3662
46 1 -1.13007 22.8712 2.33359
47 1 -1.89066 22.9776 2.94943
48 1 -2.59229 22.6477 2.47419
49 1 -3.11331 22.0075 2.07227
50 1 -3.58808 22.1691 1.29293
51 1 -3.59896 23.0318 1.62777
52 1 -4.01638 23.5923 2.29827
53 1 -4.11002 23.1045 3.13436
54 1 -5.07333 23.0646 3.01543
55 1 -5.88853 23.2637 2.52418
56 1 -6.48559 23.8465 2.04168
57 1 -6.79528 23.0275 1.64893
58 1 -6.2945 22.2137 1.8755
59 1 -6.99992 21.9698 1.29872
60 1 -7.06799 22.1924 0.380821
61 1 -6.40171 21.9543 -0.236846
62 1 -7.13813 21.4976 -0.511895
63 1 -7.74956 22.0016 -1.01236
64 1 -7.89036 22.4984 -1.83693
65 1 -8.80509 22.5538 -1.55639
66 1 -9.67135 22.1982 -1.65309
67 1 -10.3149 21.959 -1.11119
68 1 -10.8924 21.3994 -1.48353
69 1 -11.7704 21.1275 -1.63326
70 1 -11.9586 20.262 -1.32388
71 1 -12.7778 19.807 -1.0467
72 1 -12.2526 20.1124 -0.337953
73 1 -13.0611 19.9711 0.140476
74 1 -13.0367 19.1705 0.667825
75 1 -13.8541 18.6914 0.513772
76 1 -14.216 17.9875 0.953901
77 1 -14.8161 18.3253 1.55386
78 1 -14.2629 17.7204 2.04151
79 1 -13.495 17.3879 2.50401
80 1 -12.7132 17.9385 2.76909
81 1 -13.2863 18.5725 2.36794
82 1 -13.4089 19.4372 2.61614
83 1 -13.8291 19.5026 1.79802
84 1 -14.4661 19.5482 1.09319
85 1 -15.2529 19.0851 0.895371
86 1 -15.5085 19.2521 -0.000250814
87 1 -15.8617 18.4238 -0.106561
88 1 -16.7555 18.4755 -0.180833
89 1 -17.1499 18.1581 -1.01205
90 1 -16.7918 19.0537 -0.992315
91 1 -16.8769 19.9528 -0.725635
92 1 -16.2136 20.2817 -0.076796
93 1 -15.5187 21.0021 0.0779654
94 1 -15.3969 21.7526 -0.490359
95 1 -14.5542 22.1406 -0.443905
96 1 -14.6275 22.2705 0.486168
97 1 -14.1016 22.4308 1.21653
98 1 -14.7143 23.0003 1.63837
99 1 -15.5327 23.0766 2.11609
100 1 -16.2914 23.5055 1.69615
101 1 -16.3399 22.923 0.906865
102 1 -16.9906 23.678 0.557304
103 1 -16.767 23.3774 -0.284796
104 1 -15.9853 23.5312 -0.873125
105 1 -15.1195 23.6977 -1.19067
106 1 -14.2853 23.5734 -1.62636
107 1 -14.9359 23.912 -2.30417
108 1 -14.7618 24.7997 -2.15291
109 1 -13.9987 24.2542 -2.37618
110 1 -13.2327 24.4358 -1.81527
111 1 -13.3408 25.3588 -1.40624
112 1 -13.0935 26.1991 -1.68741
113 1 -13.2182 26.211 -2.62052
114 1 -12.5661 26.8968 -2.47885
115 1 -13.2522 27.6141 -2.22167
116 1 -13.4462 27.5742 -1.28581
117 1 -12.5346 27.5098 -1.1466
118 1 -11.7495 27.8629 -1.47375
119 1 -11.143 28.5506 -1.59236
120 1 -11.3754 28.5526 -2.53074
121 1 -10.5133 28.7734 -2.67962
122 1 -10.0067 28.1253 -2.28936
123 1 -9.1299 27.8661 -2.35417
124 1 -8.66831 28.0599 -3.18705
125 1 -8.39757 27.9371 -4.11322
126 1 -7.47839 27.8734 -4.11381
127 1 -6.86189 27.2621 -4.44
128 1 -6.30764 27.5097 -5.12463
ITEM: TIMESTEP
1590000
ITEM: NUMBER OF ATOMS
128
ITEM: BOX BOUNDS mm mm mm
-6.4000000000000000e+01 6.4000000000000000e+01
-6.4000000000000000e+01 6.4000000000000000e+01
-6.4000000000000000e+01 6.4000000000000000e+01
ITEM: ATOMS id type x y z
1 1 -2.58087 24.9858 -0.770637
2 1 -2.82444 24.0731 -0.880033
3 1 -2.03492 23.6376 -0.90446
4 1 -1.06848 23.779 -1.15699
5 1 -0.492145 24.4033 -1.56239
6 1 0.349805 24.0221 -1.2401
7 1 0.724511 23.1827 -1.40716
8 1 1.27293 22.5302 -1.00964
9 1 1.62151 22.1492 -0.203279
10 1 2.43386 22.4632 0.167253
11 1 2.80363 21.9916 0.892983
12 1 1.857 22.103 1.03334
13 1 1.11215 21.4652 1.14794
14 1 0.914577 20.6253 0.72044
15 1 1.29592 20.5174 -0.127404
16 1 0.442389 20.3969 -0.439277
17 1 -0.251669 19.9406 -0.894827
18 1 -1.03749 19.775 -0.497964
19 1 -1.13139 20.1585 0.349934
20 1 -1.46387 20.9006 0.889456
21 1 -0.532104 21.0069 0.879421
22 1 -0.765846 21.9323 0.813297
23 1 -0.14818 21.5878 1.56122
24 1 -0.0352949 21.9973 2.36883
25 1 0.797038 22.2637 2.06182
26 1 0.65845 22.7189 1.24239
27 1 0.909165 23.4352 1.82187
28 1 0.996013 24.3671 1.9416
29 1 0.500487 25.113 2.27086
30 1 -0.390021 25.0704 1.9827
31 1 -1.29134 25.2945 2.26797
32 1 -2.0383 24.7695 2.06313
33 1 -2.43305 24.6451 2.89788
34 1 -2.95449 25.0153 3.60233
35 1 -2.77793 24.4126 4.30631
36 1 -3.35709 25.1347 4.58327
37 1 -3.46273 24.683 5.45651
38 1 -3.47421 24.4146 6.36957
39 1 -3.4734 23.6735 5.80033
40 1 -3.4373 22.7515 5.69443
41 1 -3.23032 21.9909 6.15885
42 1 -2.66437 21.8671 5.42388
43 1 -3.47577 21.9681 4.93142
44 1 -4.28228 21.5782 4.58335
45 1 -5.05149 22.0626 4.27245
46 1 -5.74481 21.5047 4.50576
47 1 -6.13405 22.2663 4.9888
48 1 -6.7172 22.872 5.37363
49 1 -6.06363 23.464 4.97839
50 1 -5.90934 24.3075 4.59937
51 1 -6.39796 24.0515 3.82739
52 1 -6.69295 24.0641 2.87816
53 1 -6.2192 24.7697 2.5127
54 1 -6.43928 24.6211 1.64668
55 1 -6.85694 23.9679 1.05732
56 1 -7.43171 23.1937 1.09844
57 1 -8.33148 23.5214 1.41803
58 1 -8.64919 23.2438 2.26083
59 1 -9.35189 22.9369 1.68077
60 1 -10.2802 23.1322 1.84839
61 1 -10.0986 23.0623 0.917713
62 1 -11.0253 22.8204 0.669788
63 1 -10.9126 22.5018 -0.245433
64 1 -10.4695 21.8501 0.336425
65 1 -9.93997 21.1633 -0.0927266
66 1 -9.3306 20.5433 -0.392299
67 1 -8.9813 20.4264 -1.24543
68 1 -8.92675 19.5251 -0.882271
69 1 -8.3527 18.9414 -0.320261
70 1 -7.55964 19.354 0.0930876
71 1 -8.21844 19.4307 0.847874
72 1 -7.45769 19.0731 1.20974
73 1 -7.95486 18.4397 1.66676
74 1 -8.74552 18.2741 2.14326
75 1 -9.30047 17.9216 2.80023
76 1 -9.91807 17.8204 2.0367
77 1 -10.5663 17.4525 1.45767
78 1 -10.9884 16.6993 1.84507
79 1 -11.5969 16.5864 1.14047
80 1 -12.4714 16.397 1.47201
81 1 -12.5796 17.2948 1.13011
82 1 -13.3375 17.8612 1.22048
83 1 -13.7151 18.3937 0.52585
84 1 -14.0954 18.389 -0.310525
85 1 -14.384 17.5929 0.0535008
86 1 -15.0642 17.1479 0.505658
87 1 -15.6434 17.2893 -0.176022
88 1 -16.3091 17.0762 0.428213
89 1 -15.9653 16.9808 1.26773
90 1 -15.5163 17.7564 1.50884
91 1 -15.2592 18.3158 2.2108
92 1 -15.7927 18.4303 2.99089
93 1 -16.5986 18.5328 3.4997
94 1 -16.9559 19.3858 3.17133
95 1 -16.6878 19.5185 2.29422
96 1 -16.0949 20.2333 2.16717
97 1 -15.2475 20.3242 1.74891
98 1 -15.8008 19.9559 1.06275
99 1 -15.8091 19.9788 0.091712
100 1 -15.9124 20.8156 -0.362256
101 1 -16.0588 21.7274 -0.445323
102 1 -15.3833 21.8196 0.183771
103 1 -15.2103 21.5616 1.11858
104 1 -15.514 22.3071 1.6349
105 1 -16.0492 22.9419 1.23864
106 1 -16.8529 23.3906 1.23133
107 1 -17.5811 23.2092 1.76428
108 1 -18.4127 23.6137 1.65404
109 1 -17.8034 23.8425 0.94913
110 1 -17.2902 24.5768 1.24931
111 1 -17.2494 25.3358 1.80161
112 1 -16.5804 25.9347 2.02363
113 1 -17.2069 26.6088 1.91454
114 1 -17.1423 27.1795 2.67969
115 1 -16.2772 27.6422 2.69449
116 1 -15.3393 27.5813 2.9621
117 1 -15.2238 27.9253 2.08134
118 1 -15.0837 27.0227 1.93015
119 1 -14.2866 27.4366 2.04317
120 1 -13.5102 27.9955 1.90088
121 1 -12.6145 27.737 1.99841
122 1 -11.8345 28.275 1.86157
123 1 -11.4136 28.3456 0.936252
124 1 -10.7131 28.545 0.287725
125 1 -10.2192 29.413 0.43613
126 1 -10.1634 29.0768 1.27099
127 1 -9.80531 29.7655 1.77419
128 1 -10.3917 30.4435 2.15267
ITEM: TIMESTEP
1600000
ITEM: NUMBER OF ATOMS
128
ITEM: BOX BOUNDS mm mm mm
-6.4000000000000000e+01 6.4000000000000000e+01
-6.4000000000000000e+01 6.4000000000000000e+01
-6.4000000000000000e+01 6.4000000000000000e+01
ITEM: ATOMS id type x y z
1 1 1.03616 20.5867 0.713884
2 1 1.81835 21.0732 0.382121
3 1 1.6004 21.6336 1.15684
4 1 2.10711 22.1794 1.63432
5 1 2.06843 22.202 2.56015
6 1 2.67788 21.8236 3.18449
7 1 3.28027 22.5254 2.88219
8 1 4.10574 22.5468 3.38086
9 1 4.31896 22.394 4.22547
10 1 4.55104 23.2763 4.59553
11 1 3.85357 22.8351 5.17781
12 1 3.25379 23.1907 5.84064
13 1 3.90064 22.875 6.42076
14 1 3.83259 22.099 6.96857
15 1 3.2103 21.625 6.55741
16 1 2.40241 21.4826 6.92392
17 1 1.96159 22.2393 6.62457
18 1 1.16859 22.0411 7.17603
19 1 0.305298 22.0362 7.58736
20 1 0.240763 21.1166 7.49053
21 1 -0.551852 21.0156 7.05982
22 1 -1.38934 21.18 7.37558
23 1 -1.94046 20.4616 7.5566
24 1 -2.37832 19.6269 7.40364
25 1 -2.79738 18.8049 7.47567
26 1 -2.6645 18.554 6.61657
27 1 -3.56271 18.2818 6.58661
28 1 -3.54746 17.3413 6.84533
29 1 -3.30482 16.7628 6.15444
30 1 -4.07798 17.1165 5.79034
31 1 -5.04902 17.0798 5.95928
32 1 -5.73487 17.7043 5.97909
33 1 -6.45276 18.2096 6.3911
34 1 -7.31184 17.8475 6.48517
35 1 -7.95146 17.5782 5.8738
36 1 -7.69022 18.2427 5.25042
37 1 -7.70914 19.1791 5.12665
38 1 -7.0843 19.4655 5.71754
39 1 -7.20091 20.0439 4.99443
40 1 -6.4509 20.2176 4.4773
41 1 -6.33658 21.1039 4.08085
42 1 -6.46994 21.5597 4.87169
43 1 -6.30441 21.0335 5.59659
44 1 -7.07775 20.8906 6.01456
45 1 -7.95464 20.5785 6.2737
46 1 -8.69311 20.0699 5.91018
47 1 -9.54898 20.3071 5.60338
48 1 -10.0917 19.6795 6.08818
49 1 -10.6585 20.1322 5.50225
50 1 -10.5266 20.0059 4.54309
51 1 -10.8405 20.6531 3.88534
52 1 -11.2529 21.5478 4.13579
53 1 -11.4752 22.1442 3.47247
54 1 -10.986 22.9717 3.60125
55 1 -10.6765 22.6084 2.79759
56 1 -10.4707 21.699 2.80643
57 1 -10.4797 20.7446 2.78272
58 1 -9.61317 20.3985 2.98036
59 1 -8.9835 20.3582 3.68788
60 1 -9.50264 19.6748 4.0791
61 1 -9.89931 18.7157 4.2015
62 1 -9.55402 17.8717 3.94605
63 1 -9.28323 17.0289 4.21084
64 1 -8.72287 16.6887 3.47269
65 1 -8.10414 16.2141 2.85104
66 1 -7.81299 16.2885 1.9788
67 1 -6.94547 16.0708 1.60886
68 1 -7.31631 15.2087 1.47986
69 1 -7.78171 14.4457 1.7546
70 1 -8.61838 14.799 1.4161
71 1 -9.06378 14.5401 2.19286
72 1 -9.07085 15.383 2.64574
73 1 -9.70114 15.0541 3.21166
74 1 -10.4513 15.578 3.09403
75 1 -10.8566 15.6677 3.9845
76 1 -11.1206 15.3487 4.82926
77 1 -10.7528 14.5257 5.04105
78 1 -10.5787 14.4543 6.00245
79 1 -10.5006 14.8966 6.82547
80 1 -10.2203 14.0435 7.16819
81 1 -10.3458 14.2035 8.08943
82 1 -10.8298 13.6804 8.72318
83 1 -11.6016 13.8636 8.2046
84 1 -11.7521 14.0415 7.29659
85 1 -12.2775 14.5733 6.76286
86 1 -11.7994 15.398 6.71618
87 1 -11.7493 16.2913 6.54771
88 1 -12.327 16.5423 5.8397
89 1 -13.1663 16.1408 6.15724
90 1 -13.746 16.8116 6.48984
91 1 -14.5991 17.1545 6.63399
92 1 -14.5024 17.6425 7.5144
93 1 -14.4938 18.1622 6.71448
94 1 -14.5896 18.502 5.83995
95 1 -15.5571 18.515 5.73025
96 1 -15.4244 19.1219 6.4124
97 1 -14.9044 19.9017 6.39607
98 1 -15.2048 20.7002 6.07287
99 1 -15.5505 21.4643 5.55699
100 1 -14.8266 22.0527 5.65485
101 1 -14.8051 22.8494 5.20168
102 1 -14.2827 23.2179 4.47524
103 1 -13.7838 23.9095 4.04943
104 1 -13.9365 24.3244 3.18228
105 1 -14.8523 24.2547 3.00685
106 1 -15.0028 23.9922 2.09538
107 1 -14.9954 24.9478 2.17014
108 1 -14.5344 25.2851 1.39607
109 1 -14.0347 25.7097 0.710296
110 1 -14.5011 26.2861 0.152982
111 1 -14.3481 26.8942 0.885183
112 1 -13.5443 27.0332 0.436116
113 1 -13.1841 26.4662 -0.22659
114 1 -13.1104 25.599 0.106669
115 1 -12.2254 25.6091 -0.150418
116 1 -11.4271 25.9982 -0.485286
117 1 -10.8729 26.6205 -0.898436
118 1 -10.7328 26.3216 -1.77247
119 1 -11.0262 26.8631 -2.44316
120 1 -11.786 26.687 -3.05973
121 1 -11.3899 27.3496 -3.62679
122 1 -11.6438 27.9715 -4.30572
123 1 -11.2791 28.6272 -4.88102
124 1 -10.7302 28.0153 -5.34819
125 1 -11.485 27.5 -5.72016
126 1 -12.1784 27.1196 -6.17836
127 1 -12.6168 27.793 -6.62933
128 1 -12.6723 27.2961 -7.38613
ITEM: TIMESTEP
1610000
ITEM: NUMBER OF ATOMS
128
ITEM: BOX BOUNDS mm mm mm
-6.4000000000000000e+01 6.4000000000000000e+01
-6.4000000000000000e+01 6.4000000000000000e+01
-6.4000000000000000e+01 6.4000000000000000e+01
ITEM: ATOMS id type x y z
1 1 4.6167 18.7531 2.45895
2 1 4.45147 18.4626 3.35284
3 1 3.54973 18.4366 3.68686
4 1 2.80238 18.0475 4.13607
5 1 2.49527 18.8897 4.02781
6 1 3.25683 19.4003 4.17613
7 1 3.74574 19.7608 4.8446
8 1 4.40458 20.3598 4.90246
9 1 5.04672 20.9291 5.24562
10 1 4.42062 21.5959 5.40344
11 1 3.67517 20.912 5.38914
12 1 3.85979 20.4654 6.22431
13 1 3.82888 19.7221 6.79675
14 1 4.29549 18.9126 6.50944
15 1 4.42563 18.7616 7.42012
16 1 3.41896 18.7331 7.24025
17 1 2.92296 18.085 7.57369
18 1 3.25065 17.2195 7.95779
19 1 2.58666 16.5719 7.94169
20 1 2.02835 16.6492 8.62878
21 1 1.14858 16.537 8.29831
22 1 1.56663 16.1919 7.55962
23 1 2.19028 15.9547 6.92121
24 1 2.45866 15.7832 6.01996
25 1 1.70711 15.5785 5.53052
26 1 1.64636 14.7153 5.93213
27 1 1.31354 15.1379 6.69572
28 1 0.501527 15.1507 7.20806
29 1 -0.0754185 15.4824 7.83579
30 1 -0.623517 16.0062 7.27897
31 1 -1.13855 16.107 8.05543
32 1 -2.01029 16.1087 8.3133