ITEM: TIMESTEP
780000
ITEM: NUMBER OF ATOMS
128
ITEM: BOX BOUNDS mm mm mm
-6.4000000000000000e+01 6.4000000000000000e+01
-6.4000000000000000e+01 6.4000000000000000e+01
-6.4000000000000000e+01 6.4000000000000000e+01
ITEM: ATOMS id type x y z
1 1 -8.12724 11.388 -9.28655
2 1 -8.74769 10.8872 -9.80029
3 1 -9.31837 11.6467 -9.49642
4 1 -9.64558 12.5352 -9.52107
5 1 -9.34164 12.3702 -8.64386
6 1 -10.0757 12.2552 -8.16753
7 1 -10.5 11.684 -7.59494
8 1 -10.7935 11.366 -6.78118
9 1 -10.0571 11.7747 -6.35864
10 1 -9.90291 12.1628 -5.49886
11 1 -10.1727 13.0814 -5.44024
12 1 -9.85322 13.6648 -4.74405
13 1 -9.20581 13.0442 -4.36344
14 1 -9.29063 13.2516 -3.44839
15 1 -9.31056 14.2206 -3.39484
16 1 -10.0553 14.7627 -3.16645
17 1 -10.992 14.8614 -3.34392
18 1 -11.3532 13.9778 -3.35162
19 1 -11.5873 14.3316 -2.51124
20 1 -12.485 14.395 -2.80756
21 1 -13.0984 13.9827 -2.24733
22 1 -13.2358 13.0278 -2.23701
23 1 -12.965 12.1565 -2.00449
24 1 -12.2084 12.2558 -1.43534
25 1 -11.5412 11.653 -1.18952
26 1 -11.0635 12.4094 -0.998867
27 1 -10.2253 12.1797 -0.707157
28 1 -9.38147 12.5827 -0.726238
29 1 -8.971 12.5415 0.104079
30 1 -8.03811 12.6712 -0.117052
31 1 -7.9326 12.0737 0.563198
32 1 -8.07213 12.5727 1.3665
33 1 -8.06633 12.0292 2.13829
34 1 -7.9832 11.8586 3.06589
35 1 -7.58996 12.2148 3.85143
36 1 -7.19708 12.5564 4.65629
37 1 -6.47385 13.1078 4.30912
38 1 -5.94538 12.2847 4.42765
39 1 -5.01458 12.3615 4.58829
40 1 -4.79416 11.9542 5.45445
41 1 -4.68614 11.1437 5.02587
42 1 -4.19826 10.3875 5.41577
43 1 -3.67569 9.60444 5.34708
44 1 -3.43901 10.0857 4.59391
45 1 -4.14013 9.59919 4.28404
46 1 -3.61786 9.61662 3.48775
47 1 -4.16664 10.2818 3.16752
48 1 -4.80931 9.74259 3.46564
49 1 -5.56158 9.37102 3.07589
50 1 -5.91619 8.46783 2.97805
51 1 -5.39036 8.04719 2.2513
52 1 -5.44738 7.59921 1.42008
53 1 -4.96102 8.41713 1.22243
54 1 -5.52202 9.15433 1.01425
55 1 -4.733 9.60638 0.823945
56 1 -4.44245 9.3236 -0.0509839
57 1 -4.59739 9.95923 -0.718952
58 1 -3.78917 10.2904 -1.01693
59 1 -3.05835 10.3391 -1.62805
60 1 -2.13906 10.5025 -1.58559
61 1 -2.22488 9.60254 -1.94461
62 1 -1.36829 9.80898 -2.30204
63 1 -0.712085 9.35225 -2.8354
64 1 -0.340756 9.41159 -3.73294
65 1 0.171925 9.02525 -4.39527
66 1 0.182099 10.0195 -4.50619
67 1 0.166346 10.9455 -4.38762
68 1 0.742724 11.5689 -3.8972
69 1 1.51201 11.1745 -4.31689
70 1 2.27348 11.1831 -3.85028
71 1 2.54761 11.67 -3.06687
72 1 1.60836 11.7841 -2.98737
73 1 1.17846 11.5574 -2.19941
74 1 0.360845 11.3255 -2.66953
75 1 0.540167 10.4394 -2.42225
76 1 -0.0300779 9.90104 -1.8366
77 1 -0.102672 10.1939 -0.975689
78 1 0.22862 9.30878 -1.00711
79 1 0.739773 8.54497 -0.869015
80 1 1.17018 7.96559 -0.218813
81 1 2.07414 7.94049 0.14272
82 1 2.43895 8.02215 1.03221
83 1 2.48716 7.64741 1.84188
84 1 2.00174 6.76637 1.91228
85 1 2.68438 6.40503 1.4609
86 1 3.47129 6.59314 0.931959
87 1 3.34675 6.38141 0.00256729
88 1 4.02611 5.98374 -0.454475
89 1 4.8592 5.70464 -0.784833
90 1 4.93491 6.32994 -0.140667
91 1 4.83632 6.73127 0.662809
92 1 4.93925 7.38449 0.00307247
93 1 5.10493 8.11499 -0.576708
94 1 5.34375 7.91566 -1.4791
95 1 4.79914 7.59914 -2.24097
96 1 5.25104 6.84009 -2.42833
97 1 4.60162 6.4221 -2.94357
98 1 5.31062 5.96837 -3.32353
99 1 5.19664 6.32928 -4.1937
100 1 4.82891 6.65671 -4.95544
101 1 5.18651 6.82084 -5.81209
102 1 6.08658 7.14906 -5.92444
103 1 5.52447 7.70124 -6.34632
104 1 4.65143 8.03514 -6.1926
105 1 3.75188 8.33449 -6.00065
106 1 2.9576 8.75785 -5.72975
107 1 2.4787 8.26964 -5.0932
108 1 1.98693 8.56343 -5.80417
109 1 1.85651 8.87843 -6.68673
110 1 0.95444 9.14119 -6.69706
111 1 0.782512 9.58833 -7.50449
112 1 0.891267 8.95699 -8.17579
113 1 1.40832 8.18983 -8.3756
114 1 1.77721 8.13361 -9.24797
115 1 1.56562 8.01117 -10.1085
116 1 1.80177 8.54941 -10.8149
117 1 1.78343 8.83794 -11.7817
118 1 0.866006 8.92935 -11.7971
119 1 0.0402014 8.60868 -12.1512
120 1 -0.700057 8.01035 -11.9807
121 1 -0.978916 8.09356 -10.9685
122 1 -0.191458 7.98226 -10.4046
123 1 -0.399948 7.12113 -10.1571
124 1 -1.20878 6.75529 -10.6189
125 1 -1.95375 6.26048 -10.8416
126 1 -2.87812 6.03779 -10.7726
127 1 -3.25066 5.48931 -10.1397
128 1 -3.94129 4.95617 -9.78652
ITEM: TIMESTEP
790000
ITEM: NUMBER OF ATOMS
128
ITEM: BOX BOUNDS mm mm mm
-6.4000000000000000e+01 6.4000000000000000e+01
-6.4000000000000000e+01 6.4000000000000000e+01
-6.4000000000000000e+01 6.4000000000000000e+01
ITEM: ATOMS id type x y z
1 1 -10.4911 19.4355 -5.58441
2 1 -10.3249 18.6956 -5.06829
3 1 -10.3037 18.4664 -4.08677
4 1 -10.3995 17.9444 -3.30751
5 1 -10.8887 17.2097 -3.57799
6 1 -10.7593 16.7946 -4.42605
7 1 -9.96042 16.2905 -4.7022
8 1 -9.49804 16.7528 -5.39386
9 1 -10.0418 16.6317 -6.10395
10 1 -10.5976 15.8465 -6.212
11 1 -10.1549 15.4544 -6.94486
12 1 -10.9636 14.9608 -6.87679
13 1 -10.3687 14.2356 -6.63602
14 1 -11.1186 13.9234 -6.12811
15 1 -11.6017 13.5622 -5.41635
16 1 -10.8466 13.1402 -5.08483
17 1 -11.5477 12.819 -4.56151
18 1 -11.0044 12.2594 -3.97424
19 1 -10.1614 12.6116 -3.70376
20 1 -10.4475 11.8758 -3.1788
21 1 -9.66166 11.3697 -3.21328
22 1 -8.66398 11.3244 -3.11973
23 1 -8.33409 11.0289 -2.29351
24 1 -8.26005 10.8303 -1.40606
25 1 -7.91003 9.9928 -1.68845
26 1 -8.33835 9.55236 -2.37618
27 1 -8.70735 8.74615 -2.74979
28 1 -8.06033 8.39588 -2.1249
29 1 -7.32451 7.96954 -1.70664
30 1 -6.67802 7.64844 -1.09753
31 1 -6.06387 7.08599 -1.52535
32 1 -5.24684 7.51114 -1.19851
33 1 -5.00475 7.99387 -0.415406
34 1 -4.96488 8.00698 0.521433
35 1 -5.24125 7.06586 0.593688
36 1 -6.07338 7.58131 0.692619
37 1 -6.29149 7.48076 1.5839
38 1 -5.34369 7.33689 1.75801
39 1 -4.6259 7.93107 1.82383
40 1 -4.08262 7.56962 1.01401
41 1 -3.58731 7.11219 1.69094
42 1 -2.65828 7.06686 1.86534
43 1 -1.73119 6.94507 1.74986
44 1 -1.52872 7.62336 1.162
45 1 -2.27459 7.56815 0.617719
46 1 -2.3856 6.64104 0.569891
47 1 -2.50868 5.93408 1.15277
48 1 -1.98729 5.20585 0.815547
49 1 -1.27145 5.77691 1.0861
50 1 -0.523058 6.14929 1.50579
51 1 0.0695729 6.47382 0.884432
52 1 0.244176 5.72194 0.241062
53 1 1.13027 5.73569 -0.0806028
54 1 1.87417 5.26654 0.273102
55 1 2.10205 6.15277 0.428304
56 1 1.88016 6.96896 0.0428299
57 1 0.957478 6.91101 0.319079
58 1 0.368621 7.13152 -0.376428
59 1 0.679959 6.69604 -1.08606
60 1 0.197703 7.14565 -1.75444
61 1 -0.645176 7.35617 -2.00832
62 1 -1.31262 7.84717 -2.41547
63 1 -0.997504 7.32159 -3.07589
64 1 -0.556102 6.50423 -3.15244
65 1 -0.901601 6.81552 -3.98882
66 1 -1.37552 7.62827 -4.23763
67 1 -1.98014 8.36085 -4.54288
68 1 -1.74539 8.83548 -3.80728
69 1 -1.60094 9.71862 -3.8576
70 1 -1.51037 10.4099 -3.26614
71 1 -1.52986 11.2164 -2.81266
72 1 -0.733079 11.5683 -3.08597
73 1 -0.0997352 11.2453 -2.49846
74 1 0.66585 11.5804 -2.94028
75 1 0.985787 11.1513 -2.18369
76 1 1.23833 10.8514 -1.28937
77 1 2.02295 10.4516 -1.64601
78 1 2.43399 10.7125 -2.39656
79 1 2.41397 11.626 -2.30229
80 1 3.06276 11.6616 -3.00409
81 1 2.91718 11.193 -3.78935
82 1 3.13966 10.4111 -3.12468
83 1 3.23253 9.58482 -3.63588
84 1 3.13454 8.98013 -2.88278
85 1 3.7702 9.256 -2.26552
86 1 4.54105 8.77652 -2.59311
87 1 4.53551 7.85662 -2.69798
88 1 3.70876 7.55974 -3.06275
89 1 4.32042 7.36712 -3.73948
90 1 4.63365 7.18489 -4.6114
91 1 4.80526 6.22334 -4.49247
92 1 5.7394 6.25417 -4.41546
93 1 6.20634 6.96071 -4.86686
94 1 7.13996 6.93355 -4.82508
95 1 6.91293 6.05398 -4.83106
96 1 7.25077 5.23868 -5.2446
97 1 6.31842 5.35386 -5.46806
98 1 5.46026 4.93316 -5.26607
99 1 4.54654 4.66227 -5.46879
100 1 3.82102 4.80908 -6.04223
101 1 3.33722 5.58823 -5.85496
102 1 2.48438 5.9238 -5.88453
103 1 2.75344 6.33372 -5.1233
104 1 2.07524 6.84152 -4.8008
105 1 1.73888 6.19226 -5.30728
106 1 0.830149 6.19442 -5.02893
107 1 0.759496 6.49838 -5.93324
108 1 0.675937 5.60007 -6.20865
109 1 0.408504 5.68809 -7.13568
110 1 0.0423671 5.80149 -8.02839
111 1 0.730873 6.28855 -8.49175
112 1 -0.118637 6.42287 -8.88538
113 1 0.251579 5.8129 -9.48139
114 1 -0.138623 4.95602 -9.55597
115 1 -0.813006 5.67975 -9.69292
116 1 -1.44455 5.73658 -10.356
117 1 -2.34095 5.61657 -9.85115
118 1 -2.8918 4.90431 -10.1116
119 1 -2.76286 3.95665 -9.93596
120 1 -2.3651 3.73117 -10.7186
121 1 -1.77029 3.96381 -11.4282
122 1 -2.43083 4.10727 -12.0092
123 1 -1.98601 4.2025 -12.7626
124 1 -2.83668 3.85469 -13.0225
125 1 -3.61779 4.02763 -13.5727
126 1 -3.07729 3.95895 -14.3298
127 1 -3.39652 4.64782 -14.8468
128 1 -4.17227 4.08 -14.9198
ITEM: TIMESTEP
800000
ITEM: NUMBER OF ATOMS
128
ITEM: BOX BOUNDS mm mm mm
-6.4000000000000000e+01 6.4000000000000000e+01
-6.4000000000000000e+01 6.4000000000000000e+01
-6.4000000000000000e+01 6.4000000000000000e+01
ITEM: ATOMS id type x y z
1 1 -8.67498 15.575 -6.28581
2 1 -9.38379 15.5873 -6.9402
3 1 -9.51766 16.5057 -6.62369
4 1 -9.75799 17.1959 -5.94845
5 1 -10.6106 16.7467 -6.1697
6 1 -11.0467 17.5869 -6.17908
7 1 -11.703 17.5635 -5.52039
8 1 -11.5049 16.6672 -5.42812
9 1 -11.894 16.0076 -5.9503
10 1 -11.1329 15.4252 -5.93758
11 1 -10.28 15.0833 -6.22043
12 1 -10.8124 14.4484 -6.61891
13 1 -11.2554 14.008 -5.96957
14 1 -11.7744 13.7748 -5.21339
15 1 -11.1966 13.1228 -4.73667
16 1 -10.7396 12.3606 -4.80688
17 1 -10.0047 11.7677 -4.99532
18 1 -9.64531 12.3125 -4.32088
19 1 -9.08339 12.7761 -3.72871
20 1 -8.52934 13.0224 -3.05044
21 1 -7.69856 13.1509 -2.59828
22 1 -7.05597 13.6772 -2.18576
23 1 -7.14565 13.6157 -1.17305
24 1 -6.52037 14.3212 -1.19747
25 1 -6.07015 13.5263 -0.914138
26 1 -5.25869 13.7514 -0.515758
27 1 -5.52865 14.5065 -0.0232133
28 1 -6.15227 15.2559 -0.0952102
29 1 -6.5382 16.0628 -0.371277
30 1 -6.20564 16.9013 -0.537762
31 1 -5.56474 16.8297 0.139831
32 1 -4.93161 17.1485 -0.484828
33 1 -4.53136 16.7612 0.238854
34 1 -4.1104 15.953 0.582091
35 1 -4.64613 15.3545 1.01686
36 1 -4.31521 14.5201 1.11099
37 1 -4.98097 14.2277 1.72736
38 1 -4.69902 13.2737 1.78545
39 1 -4.56572 12.5367 2.3227
40 1 -4.5116 11.6116 2.55137
41 1 -4.71132 10.6759 2.73908
42 1 -5.06038 10.1104 2.0429
43 1 -4.89738 9.20196 1.79794
44 1 -4.62216 9.14427 0.893882
45 1 -3.92122 9.66494 0.415438
46 1 -3.23325 9.57278 -0.213687
47 1 -2.86069 8.75317 0.166398
48 1 -2.21886 9.24369 -0.355999
49 1 -1.53655 8.58792 -0.267002
50 1 -0.582128 8.68471 -0.0842698
51 1 -0.348364 9.56444 -0.152844
52 1 -0.835068 10.0949 0.390692
53 1 -0.589903 10.9345 0.734133
54 1 0.0995158 10.8095 0.111104
55 1 0.838332 10.466 -0.381203
56 1 1.01308 10.4665 -1.31843
57 1 1.7354 10.7042 -0.715567
58 1 1.98722 10.8464 0.120477
59 1 2.38835 10.0088 -0.0321325
60 1 3.07072 10.669 -0.221075
61 1 3.0655 11.3555 -0.892623
62 1 3.97656 11.14 -0.575469
63 1 4.45367 10.3167 -0.443304
64 1 3.88419 9.67941 -0.134583
65 1 3.99182 8.78093 -0.143392
66 1 4.68789 8.48976 -0.797468
67 1 5.25115 7.73544 -1.07313
68 1 5.56127 6.85401 -1.31349
69 1 4.62216 6.76881 -1.23369
70 1 3.95802 6.66597 -1.90192
71 1 3.35713 6.7899 -2.69661
72 1 4.20419 7.11377 -2.73845
73 1 4.92374 7.46857 -3.14509
74 1 4.22133 7.9705 -3.51594
75 1 3.81968 8.79834 -3.5934
76 1 4.42473 9.48804 -3.68536
77 1 3.73573 10.0334 -3.91588
78 1 3.13218 10.3114 -3.26123
79 1 2.43861 10.9545 -3.25736
80 1 1.56579 11.2905 -3.05139
81 1 1.73863 11.8114 -3.83191
82 1 1.93504 11.4492 -4.66148
83 1 2.20789 12.3585 -4.70043
84 1 2.08262 12.6732 -5.58159
85 1 2.54259 12.5452 -6.38369
86 1 2.73246 13.2761 -6.90426
87 1 3.35782 13.0699 -7.59625
88 1 3.8907 12.3649 -7.97744
89 1 4.49749 12.5493 -7.22632
90 1 5.03359 12.0432 -7.89421
91 1 4.45386 11.3016 -7.85749
92 1 3.51738 11.1323 -7.94876
93 1 4.12502 10.3516 -7.72382
94 1 3.93379 10.4482 -6.80631
95 1 3.39861 9.64595 -6.80337
96 1 3.31209 9.4737 -5.88888
97 1 2.80345 8.73146 -6.05672
98 1 2.0979 8.51088 -6.64095
99 1 1.28517 8.05863 -6.61179
100 1 0.56811 7.71103 -7.093
101 1 0.960032 7.59428 -7.95747
102 1 1.02104 8.51871 -7.81051
103 1 0.255113 8.94988 -7.4254
104 1 0.0581298 9.51179 -8.1503
105 1 -0.66785 9.99516 -7.86375
106 1 -0.46988 10.9184 -7.86778
107 1 -0.34902 11.8561 -7.79685
108 1 -0.00824324 11.5761 -6.95303
109 1 -0.840008 11.5631 -6.52228
110 1 -1.53419 11.7155 -5.86311
111 1 -1.916 11.7978 -6.72623
112 1 -2.25985 11.9934 -7.60429
113 1 -2.75641 11.2441 -7.64664
114 1 -2.92928 10.3633 -7.41835
115 1 -3.04176 10.3302 -6.49503
116 1 -3.07742 9.39794 -6.72138
117 1 -2.31685 9.52879 -6.19454
118 1 -1.37605 9.33542 -5.95297
119 1 -1.47992 8.47741 -6.31649
120 1 -1.75609 8.06135 -7.10681
121 1 -1.15412 7.34652 -6.83504
122 1 -0.41406 6.85387 -6.47329
123 1 -0.114508 6.02074 -6.20861
124 1 -0.176651 5.32779 -6.83054
125 1 0.00925828 5.61585 -7.7047
126 1 -0.586723 6.20668 -7.27586
127 1 -0.248756 6.64683 -8.02075
128 1 -0.363167 7.53077 -7.76663
ITEM: TIMESTEP
810000
ITEM: NUMBER OF ATOMS
128
ITEM: BOX BOUNDS mm mm mm
-6.4000000000000000e+01 6.4000000000000000e+01
-6.4000000000000000e+01 6.4000000000000000e+01
-6.4000000000000000e+01 6.4000000000000000e+01
ITEM: ATOMS id type x y z
1 1 -12.0523 21.8953 -7.72682
2 1 -11.8096 21.3776 -8.47475
3 1 -11.1267 20.8187 -8.58652
4 1 -10.6002 20.0634 -8.65892
5 1 -10.176 20.676 -9.29465
6 1 -9.49096 20.1869 -9.58484
7 1 -8.80936 19.521 -9.64258
8 1 -8.68081 18.7024 -9.21052
9 1 -7.96887 18.5926 -8.56164
10 1 -7.37475 18.4141 -7.83007
11 1 -6.75667 17.6915 -7.84003
12 1 -6.54487 18.0922 -7.0012
13 1 -6.81412 17.6655 -6.17568
14 1 -6.3846 17.147 -5.53832
15 1 -6.88169 16.4197 -5.22762
16 1 -7.81153 16.5285 -5.11494
17 1 -7.54383 17.3517 -5.47538
18 1 -7.94419 17.6158 -4.62019
19 1 -8.16181 16.9313 -3.99402
20 1 -7.79218 16.4257 -3.33293
21 1 -8.35628 16.0021 -2.73794
22 1 -8.80423 16.06 -1.92156
23 1 -9.30024 15.3294 -1.68145
24 1 -9.33779 14.6182 -2.32159
25 1 -8.88188 13.8707 -2.64797
26 1 -8.60815 12.9535 -2.85172
27 1 -8.01641 13.4844 -3.3872
28 1 -7.38456 14.1165 -3.65564
29 1 -6.77575 13.8448 -3.00437
30 1 -5.92373 14.1171 -2.80964
31 1 -5.19171 14.5009 -3.24894
32 1 -4.42753 14.1278 -3.6876
33 1 -3.52745 14.4828 -3.42164
34 1 -2.79513 14.0756 -3.79934
35 1 -2.59574 13.4455 -3.16777
36 1 -1.95611 13.9454 -2.73489
37 1 -1.18486 13.6765 -2.33125
38 1 -0.286768 13.3313 -2.31884
39 1 0.649812 13.3524 -2.16374
40 1 0.638959 12.4363 -1.91698
41 1 1.53852 12.1634 -1.71223
42 1 2.00488 11.6241 -1.17094
43 1 2.77075 11.5952 -0.65023
44 1 3.31892 12.4391 -0.626578
45 1 3.41532 12.5522 0.31346
46 1 2.92482 12.3873 1.11791
47 1 3.753 11.9899 1.40059
48 1 3.89324 11.1389 1.15214
49 1 4.5138 10.8636 1.74858
50 1 5.15535 11.4571 1.30784
51 1 5.11307 12.2686 1.7566
52 1 4.59643 12.4428 2.52198
53 1 4.58738 13.3682 2.45249
54 1 5.35356 13.6394 2.03868
55 1 5.85124 13.3381 2.7565
56 1 6.40572 13.3629 3.51487
57 1 7.02448 12.9877 4.13286
58 1 7.08454 12.0726 3.99128
59 1 7.952 12.2318 3.54392
60 1 7.81532 12.203 2.62169
61 1 7.22501 11.9435 1.94055
62 1 7.00014 11.0061 1.95822
63 1 7.04479 10.2998 2.58816
64 1 6.37272 10.6681 3.18557
65 1 5.51097 10.2813 3.11221
66 1 5.20693 9.93286 2.20484
67 1 5.8607 9.50389 1.67552
68 1 5.18966 9.85146 1.13778
69 1 5.18437 10.0982 0.189023
70 1 4.74998 10.3319 -0.590267
71 1 5.08942 11.0478 -1.18646
72 1 4.22482 11.3915 -1.36455
73 1 4.43749 12.0877 -2.0184
74 1 4.73787 12.7925 -2.63927
75 1 4.02702 13.1068 -3.27729
76 1 3.851 13.3101 -4.14438
77 1 3.95868 12.4784 -4.60035
78 1 4.8219 12.1769 -4.48318
79 1 5.20185 12.2916 -5.31388
80 1 5.1988 13.0786 -5.83453
81 1 4.37158 13.4978 -5.85051
82 1 3.74435 14.001 -5.2454
83 1 3.00578 13.6734 -5.78313
84 1 2.32205 13.6601 -5.15185
85 1 1.78665 12.9096 -5.54518
86 1 1.49475 12.0426 -5.87759
87 1 2.25047 11.6414 -5.46994
88 1 1.99486 11.1111 -6.21793
89 1 1.65426 10.349 -5.77654
90 1 0.854238 9.94408 -5.89525
91 1 0.365827 9.18283 -5.99984
92 1 0.117315 9.47525 -6.84437
93 1 0.565153 8.91801 -7.51201
94 1 -0.159832 9.09104 -8.09881
95 1 -0.155497 8.4845 -8.83801
96 1 -0.951006 8.43866 -9.36863
97 1 -1.2914 7.54492 -9.37347
98 1 -1.85698 7.7977 -8.69394
99 1 -2.19086 8.532 -9.14501
100 1 -3.0823 8.84491 -9.05088
101 1 -3.06081 8.61402 -8.0549
102 1 -3.77491 8.04426 -8.38209
103 1 -4.00314 7.79449 -7.43841
104 1 -4.49336 7.98164 -6.62207
105 1 -4.36207 8.591 -5.93606
106 1 -4.11867 8.98326 -5.11853
107 1 -5.00248 9.00171 -4.88691
108 1 -4.87488 9.70884 -4.28922
109 1 -4.48772 10.1462 -4.99975
110 1 -5.40438 10.1929 -5.03789
111 1 -5.5965 10.9433 -4.59436
112 1 -6.39074 11.2608 -4.8742
113 1 -6.5929 10.5241 -5.42912
114 1 -7.10466 9.70987 -5.58404
115 1 -6.19995 9.55644 -5.59928
116 1 -6.03011 8.72221 -5.23674
117 1 -6.27902 8.29819 -4.40056
118 1 -5.90188 8.20234 -3.5592
119 1 -5.25622 8.66792 -3.14546
120 1 -4.38849 8.56039 -3.55422
121 1 -4.35483 9.41819 -3.18425
122 1 -3.93383 9.79522 -3.92981
123 1 -3.58226 8.95406 -4.18637
124 1 -3.27489 8.22136 -4.77848
125 1 -2.36293 8.11307 -4.64846
126 1 -2.30963 8.8365 -3.9641
127 1 -1.96151 9.38324 -3.24428
128 1 -1.00094 9.54825 -3.3684
ITEM: TIMESTEP
820000
ITEM: NUMBER OF ATOMS
128
ITEM: BOX BOUNDS mm mm mm
-6.4000000000000000e+01 6.4000000000000000e+01
-6.4000000000000000e+01 6.4000000000000000e+01
-6.4000000000000000e+01 6.4000000000000000e+01
ITEM: ATOMS id type x y z
1 1 -4.32325 17.6711 -10.0175
2 1 -5.26151 17.447 -10.1009
3 1 -5.2878 18.3788 -9.81156
4 1 -5.86146 18.1815 -9.06616
5 1 -5.67274 17.8077 -8.23774
6 1 -5.16245 17.6415 -7.43799
7 1 -5.87601 17.9979 -6.92273
8 1 -6.51917 17.591 -7.38475
9 1 -6.69162 18.5013 -7.35249
10 1 -7.21582 19.301 -7.29227
11 1 -7.09114 19.5011 -8.17159
12 1 -6.69287 19.0794 -8.86681
13 1 -6.28904 19.9853 -8.9251
14 1 -5.89524 19.7613 -8.09794
15 1 -6.51404 20.4198 -7.82556
16 1 -6.72313 21.2894 -7.52922
17 1 -7.44696 21.8445 -7.25384
18 1 -7.8136 22.5654 -6.79145
19 1 -7.68891 21.836 -6.22643
20 1 -7.81925 20.8919 -6.18805
21 1 -6.921 20.7099 -6.1735
22 1 -6.51842 20.3224 -5.45061
23 1 -5.71562 20.4937 -5.88431
24 1 -4.76983 20.5645 -5.97903
25 1 -4.82428 20.3389 -5.04404
26 1 -4.28609 20.2508 -4.29578
27 1 -4.06101 19.5505 -3.66045
28 1 -4.07843 18.6293 -3.64619
29 1 -4.96884 18.7292 -3.25713
30 1 -4.73584 18.5473 -2.36725
31 1 -5.08347 18.4335 -1.49787
32 1 -5.37371 18.1048 -0.621622
33 1 -4.51656 17.6676 -0.737979
34 1 -4.96199 17.1404 -1.45247
35 1 -4.82891 16.2183 -1.43936
36 1 -3.95628 15.8821 -1.07548
37 1 -2.99202 15.9348 -1.07504
38 1 -2.84534 16.4293 -0.246048
39 1 -2.83638 17.2288 0.238578
40 1 -3.05228 18.0302 0.698946
41 1 -2.94911 18.7324 0.143811
42 1 -2.28457 18.0594 -0.136608
43 1 -2.42402 17.4256 -0.832375
44 1 -2.48623 17.8581 -1.60631
45 1 -1.6819 17.4154 -1.80483
46 1 -1.07005 16.7875 -1.36732
47 1 -1.06411 16.1572 -2.05322
48 1 -1.35213 15.7768 -1.25743
49 1 -1.27135 14.8309 -1.03905
50 1 -0.620499 15.1382 -0.371947
51 1 0.0983417 14.6107 -0.205939
52 1 0.954726 14.8165 0.0392773
53 1 1.75735 15.3052 0.0163867
54 1 2.02033 15.0312 -0.813335
55 1 2.47388 14.4855 -1.47308
56 1 3.18761 14.9697 -1.85458
57 1 3.28993 14.221 -2.41723
58 1 4.19306 14.5505 -2.48917
59 1 5.04142 14.9246 -2.47923
60 1 5.70084 14.7544 -3.14422
61 1 6.31813 14.0913 -3.3336
62 1 7.14556 13.6244 -3.11854
63 1 7.90409 13.4075 -3.60005
64 1 7.36778 12.953 -4.22857
65 1 6.66633 12.3378 -4.36291
66 1 5.84397 11.9266 -4.41992
67 1 5.2133 11.9105 -5.0861
68 1 4.58351 12.1463 -5.75399
69 1 3.76572 11.7291 -6.05161
70 1 3.05164 12.0574 -6.59302
71 1 2.61632 11.4011 -7.09528
72 1 2.9283 10.4435 -7.13431
73 1 2.633 10.1283 -6.28107
74 1 2.92879 10.8565 -5.79484
75 1 2.16548 11.2501 -6.14197
76 1 1.35258 11.6489 -5.83491
77 1 0.519745 11.207 -5.5585
78 1 -0.381011 11.5449 -5.93179
79 1 -0.143401 10.7175 -6.23425
80 1 -0.700571 10.0623 -6.47535
81 1 -0.519668 9.66106 -5.71925
82 1 -1.1039 9.3643 -5.02684
83 1 -1.36492 8.58653 -5.44512
84 1 -0.810009 8.15699 -4.86918
85 1 -0.0780849 8.13367 -5.42328
86 1 0.773675 7.64018 -5.40327
87 1 0.796115 7.16072 -4.55873
88 1 1.71146 6.89817 -4.68512
89 1 1.75818 6.26207 -5.39278
90 1 2.4315 5.67924 -5.00397
91 1 1.67687 5.09648 -5.0006
92 1 0.883152 4.94626 -5.51204
93 1 0.673506 5.48584 -6.23473
94 1 0.956785 6.23964 -6.77037
95 1 1.1837 6.32473 -7.69991
96 1 0.831303 5.56407 -8.15945
97 1 -0.0844972 5.48775 -7.86592
98 1 -0.706589 6.18248 -7.75093
99 1 -0.814503 6.39879 -6.83813
100 1 -1.32907 5.94759 -6.13362
101 1 -2.10831 6.41375 -6.34334
102 1 -1.63743 7.24716 -6.23351
103 1 -2.01737 7.77016 -5.50875
104 1 -2.16208 8.14334 -4.63809
105 1 -2.44383 7.79482 -3.69958
106 1 -2.60694 7.62204 -2.75444
107 1 -2.90073 7.17652 -2.00358
108 1 -3.31207 8.02594 -1.83417
109 1 -2.60388 8.13353 -1.21941
110 1 -1.72765 8.40365 -1.26118
111 1 -1.58463 9.26441 -0.883332
112 1 -2.12128 9.45231 -1.63892
113 1 -2.38176 8.73301 -2.17429
114 1 -2.71981 9.54752 -2.6331
115 1 -3.23081 10.3423 -2.35938
116 1 -3.10901 11.0855 -1.77859
117 1 -2.2242 11.4394 -1.97195
118 1 -1.48498 11.2382 -2.51543
119 1 -1.36781 10.4836 -1.96487
120 1 -0.898617 9.91593 -1.3568
121 1 -1.49655 10.3924 -0.874718
122 1 -2.25402 10.4692 -0.334998
123 1 -3.16604 10.5879 -0.30678
124 1 -4.08127 10.3787 -0.488392
125 1 -4.84315 9.89492 -0.476668
126 1 -4.8089 9.40231 -1.29987
127 1 -5.09362 8.71356 -0.730558
128 1 -4.67439 8.89914 0.0733667
ITEM: TIMESTEP
830000
ITEM: NUMBER OF ATOMS
128
ITEM: BOX BOUNDS mm mm mm
-6.4000000000000000e+01 6.4000000000000000e+01
-6.4000000000000000e+01 6.4000000000000000e+01
-6.4000000000000000e+01 6.4000000000000000e+01
ITEM: ATOMS id type x y z
1 1 -4.98979 13.8577 -7.16973
2 1 -5.50822 14.5963 -7.23946
3 1 -5.40725 14.2366 -8.12224
4 1 -6.28133 14.3758 -8.48544
5 1 -6.14421 15.2432 -8.17186
6 1 -7.05353 15.5133 -8.32316
7 1 -6.49768 16.3692 -8.16245
8 1 -6.47309 16.5741 -9.03974
9 1 -6.69219 17.4537 -8.76081
10 1 -7.42925 17.4355 -8.193
11 1 -8.08489 17.7469 -7.60594
12 1 -8.84614 17.914 -8.13866
13 1 -9.17557 18.3861 -7.40227
14 1 -8.80641 19.2338 -7.28303
15 1 -7.84355 19.4371 -7.18114
16 1 -6.93977 19.6449 -7.34528
17 1 -7.1346 18.8595 -7.78925
18 1 -6.38835 18.3803 -7.68298
19 1 -5.96111 18.4607 -6.82512
20 1 -5.32776 18.9397 -6.29377
21 1 -4.95354 19.6232 -6.78112
22 1 -4.44619 20.4713 -6.61692
23 1 -3.4861 20.6437 -6.62546
24 1 -3.08481 21.0611 -5.89325
25 1 -2.41348 20.4972 -5.68492
26 1 -1.52775 20.3913 -5.83132
27 1 -0.648861 20.3976 -5.67195
28 1 -0.466334 20.6524 -4.77201
29 1 -1.24466 20.8319 -4.15009
30 1 -1.98409 20.318 -3.86882
31 1 -2.34891 19.4964 -3.53564
32 1 -3.00993 19.1204 -4.0549
33 1 -3.82928 18.778 -4.3187
34 1 -3.207 18.0913 -4.11272
35 1 -2.33043 17.8015 -4.13758
36 1 -2.28115 17.4135 -3.28996
37 1 -2.64583 16.6881 -3.91565
38 1 -2.75538 15.7837 -3.93955
39 1 -2.1595 15.6759 -4.69288
40 1 -2.09558 14.9597 -4.02028
41 1 -1.2061 15.289 -4.20461
42 1 -1.24579 15.5648 -5.05402
43 1 -0.912284 16.2984 -5.51665
44 1 -0.653493 16.9048 -4.81384
45 1 -0.110366 17.1756 -4.03753
46 1 0.197109 17.0956 -3.16769
47 1 0.170769 18.0446 -3.13592
48 1 0.819672 18.4949 -3.60698
49 1 0.336481 18.3309 -4.38427
50 1 -0.382228 17.8802 -4.84417
51 1 0.181358 18.189 -5.6174
52 1 0.632713 19.0115 -5.52456
53 1 1.52253 18.8414 -5.87429
54 1 1.31557 17.8901 -5.78431
55 1 2.07324 17.5366 -5.4263
56 1 1.89495 17.0536 -4.58645
57 1 2.31558 16.7758 -3.7985
58 1 2.12679 17.323 -3.03996
59 1 2.6335 17.8435 -3.63375
60 1 3.17136 18.5154 -3.9664
61 1 3.66846 18.6636 -3.1957
62 1 4.36266 19.3115 -3.04677
63 1 4.67807 18.6244 -3.64786
64 1 4.64908 17.8278 -4.14061
65 1 3.79834 17.5134 -4.24112
66 1 4.11647 16.6915 -4.50244
67 1 3.60793 15.9059 -4.73346
68 1 3.2415 15.5067 -5.53199
69 1 2.62186 14.8618 -5.74021
70 1 2.16698 14.0679 -5.5186
71 1 2.31151 13.9497 -4.57184
72 1 1.45714 14.3915 -4.63573
73 1 1.31669 13.479 -4.60523
74 1 1.36894 13.0633 -5.44666
75 1 2.00488 12.3558 -5.4763
76 1 2.06056 11.4631 -5.21591
77 1 2.18994 10.8521 -5.9179
78 1 2.97527 10.3117 -5.87874
79 1 2.58928 9.96259 -6.66396
80 1 1.96498 9.58134 -7.21076
81 1 1.87316 8.67068 -7.4743
82 1 1.44547 7.91339 -7.16004
83 1 0.650443 7.79809 -7.60013
84 1 0.794947 7.17162 -6.91391
85 1 0.0678636 7.33386 -6.36056
86 1 -0.350024 6.61972 -5.89685
87 1 -0.198686 5.72023 -5.60538
88 1 -0.270992 5.18581 -4.82826
89 1 -1.06485 5.59673 -4.54259
90 1 -1.3659 4.7582 -4.32133
91 1 -1.0205 4.26678 -3.5505
92 1 -1.75012 3.68914 -3.36528
93 1 -1.69219 3.07287 -2.59572
94 1 -1.25952 2.4095 -2.03831
95 1 -0.71159 2.1007 -2.75167
96 1 -0.388184 2.29242 -3.62092
97 1 0.172984 1.87136 -4.20599
98 1 0.946543 2.05994 -3.7834
99 1 1.3937 1.71963 -3.03619
100 1 2.28224 1.96448 -2.87494
101 1 2.32342 2.13994 -3.77225
102 1 2.55413 1.48045 -4.39758
103 1 3.40172 1.04232 -4.5981
104 1 3.51948 1.33429 -3.72787
105 1 3.71993 0.450255 -3.49861
106 1 2.84836 0.0832176 -3.66936
107 1 2.91495 0.519944 -2.84385
108 1 3.6379 0.89421 -2.40943
109 1 3.78221 1.8221 -2.32842
110 1 4.13927 2.36646 -1.61356
111 1 3.58852 3.08511 -1.65323
112 1 3.73483 3.50069 -2.46106
113 1 4.5623 4.02426 -2.5111
114 1 4.60735 3.49674 -3.29773
115 1 5.05042 3.338 -4.1267
116 1 4.56732 3.52969 -4.90956
117 1 4.04584 4.29105 -5.00418
118 1 3.13372 4.17545 -4.86922
119 1 3.33095 4.99372 -4.43999
120 1 2.76449 5.18991 -3.66322
121 1 2.80342 6.13935 -3.865
122 1 3.43307 6.77868 -4.07964
123 1 2.62949 7.14853 -3.68636
124 1 2.28755 6.80812 -2.85581
125 1 1.99689 6.38153 -2.03824
126 1 1.09729 6.26066 -2.38339
127 1 0.726376 5.57851 -2.90402
128 1 -0.15553 5.36434 -2.93148
ITEM: TIMESTEP
840000
ITEM: NUMBER OF ATOMS
128
ITEM: BOX BOUNDS mm mm mm
-6.4000000000000000e+01 6.4000000000000000e+01
-6.4000000000000000e+01 6.4000000000000000e+01
-6.4000000000000000e+01 6.4000000000000000e+01
ITEM: ATOMS id type x y z
1 1 -0.182059 14.2325 -8.36396
2 1 -0.9793 14.6288 -8.51987
3 1 -1.35309 14.568 -7.55398
4 1 -1.11239 14.1701 -6.72248
5 1 -1.06467 13.2579 -6.94903
6 1 -1.93483 13.166 -6.53508
7 1 -2.74179 12.834 -6.15574
8 1 -2.78163 13.7187 -6.51672
9 1 -2.57173 14.6268 -6.4583
10 1 -1.98347 14.7541 -5.75886
11 1 -1.54538 15.2829 -6.39241
12 1 -2.20593 15.9709 -6.2802
13 1 -2.65944 16.0931 -5.44546
14 1 -3.57885 16.3197 -5.47427
15 1 -3.89392 15.5785 -4.98938
16 1 -3.91127 16.3039 -4.37812
17 1 -3.99788 16.8524 -3.67828
18 1 -4.06813 17.4093 -2.86205
19 1 -3.63945 18.0451 -3.40619
20 1 -3.69928 18.7487 -2.8335
21 1 -4.33533 19.3776 -2.7144
22 1 -4.86126 20.1059 -2.31797
23 1 -4.82284 19.745 -1.50184
24 1 -5.68263 19.4259 -1.45189
25 1 -5.76645 20.3551 -1.30411
26 1 -6.25937 20.8445 -0.619886
27 1 -6.56093 21.4892 -0.0188749
28 1 -6.5785 21.9702 -0.809531
29 1 -5.97145 21.6735 -1.42876
30 1 -5.09065 21.3516 -1.67001
31 1 -4.76785 21.0228 -0.801416
32 1 -3.93322 21.503 -0.608587
33 1 -3.24546 21.0822 -1.08853
34 1 -2.81 21.5393 -0.428842
35 1 -1.96243 21.9246 -0.498871
36 1 -1.72928 21.2527 -1.08041
37 1 -1.28275 21.3847 -1.85269
38 1 -0.983262 21.4439 -2.77562
39 1 -0.638017 20.5912 -2.67889
40 1 -0.361071 19.9067 -3.28079
41 1 -1.26749 19.9868 -3.36688
42 1 -0.77613 20.6052 -3.91409
43 1 -0.0994689 21.2598 -3.86697
44 1 0.682297 21.2706 -4.3733
45 1 1.08461 20.9841 -5.14231
46 1 1.79806 20.4226 -5.11707
47 1 1.43954 19.8388 -5.70267
48 1 1.70808 19.0832 -6.17288
49 1 2.28362 18.3639 -6.07432
50 1 1.79195 17.8266 -6.65683
51 1 2.13095 17.4717 -7.42926
52 1 2.30236 16.6281 -6.98863
53 1 2.67418 15.7527 -6.91273
54 1 3.65464 15.818 -6.76816
55 1 3.81226 14.8707 -6.75178
56 1 3.8757 14.1537 -7.35963
57 1 4.66449 13.7711 -7.56936
58 1 5.03781 13.932 -6.70942
59 1 5.22257 14.4586 -5.9774
60 1 5.43641 13.7892 -5.31226
61 1 5.60358 13.8829 -4.37766
62 1 5.91967 14.7756 -4.38725
63 1 5.276 14.6688 -3.67565
64 1 4.52597 14.2083 -3.95019
65 1 4.11759 13.3735 -4.00787
66 1 4.20276 12.5904 -3.5268
67 1 3.30126 12.7031 -3.48341
68 1 3.2221 11.9088 -2.93128
69 1 2.36155 11.9645 -2.55276
70 1 2.36396 11.0074 -2.35755
71 1 2.19515 10.1742 -1.97528
72 1 1.31638 10.3717 -1.71391
73 1 0.530986 9.87017 -1.51497
74 1 1.04773 9.22206 -1.07329
75 1 0.933734 8.3139 -0.744548
76 1 1.55471 8.08763 -1.44635
77 1 2.16701 7.41561 -1.4532
78 1 2.72105 6.69859 -1.22978
79 1 3.45553 6.0755 -1.12457
80 1 2.72124 5.61259 -1.58224
81 1 3.25093 6.00304 -2.29818
82 1 4.16395 5.89629 -2.30736
83 1 4.835 5.34059 -2.63762
84 1 4.81883 5.24527 -1.71509
85 1 4.88622 4.6747 -0.997172
86 1 4.48379 4.20571 -1.70854
87 1 4.8032 3.70832 -2.39777
88 1 4.19192 3.25375 -2.94951
89 1 4.04778 2.76633 -2.13379
90 1 3.12967 2.90082 -2.28814
91 1 3.14384 2.19542 -3.00503
92 1 2.38696 2.71187 -3.03319
93 1 1.63568 3.26868 -3.20454
94 1 0.940774 3.86586 -3.54783
95 1 0.152453 3.51572 -3.18209
96 1 -0.0503841 3.51016 -4.07502
97 1 0.536341 3.33285 -4.73377
98 1 -0.156869 2.77056 -4.9747
99 1 0.316164 2.71005 -5.81678
100 1 0.531816 2.22244 -6.5997
101 1 0.479586 1.27627 -6.43497
102 1 1.29623 1.06919 -6.04062
103 1 1.96221 0.679816 -5.52429
104 1 2.43101 0.0162008 -6.00451
105 1 3.19207 -0.337521 -5.47889
106 1 3.311 0.515464 -5.85834
107 1 3.89798 1.20436 -5.50315
108 1 3.58108 2.03223 -5.60656
109 1 4.20894 2.68407 -5.84994
110 1 4.96013 3.32196 -5.85615
111 1 5.72208 3.61293 -5.36809
112 1 6.27253 3.4966 -4.56221
113 1 6.85537 4.20185 -4.4451
114 1 7.19524 5.06864 -4.24961
115 1 7.06087 5.65589 -3.5552
116 1 7.58652 5.82679 -2.8493
117 1 7.46612 5.4041 -2.00289
118 1 8.05455 5.91495 -1.3958
119 1 8.38356 6.75794 -1.34213
120 1 8.30379 7.34455 -2.1161
121 1 8.93889 8.0394 -1.95549
122 1 8.28649 8.53321 -1.35813
123 1 7.95922 9.10486 -1.9874
124 1 8.51398 9.87994 -2.01751
125 1 9.1838 10.4885 -2.21401
126 1 9.78015 9.92707 -2.67104
127 1 9.66399 9.60002 -1.80989
128 1 10.2777 10.2958 -1.74273
ITEM: TIMESTEP
850000
ITEM: NUMBER OF ATOMS
128
ITEM: BOX BOUNDS mm mm mm
-6.4000000000000000e+01 6.4000000000000000e+01
-6.4000000000000000e+01 6.4000000000000000e+01
-6.4000000000000000e+01 6.4000000000000000e+01
ITEM: ATOMS id type x y z
1 1 -2.3822 13.0331 -4.60179
2 1 -1.73169 13.7514 -4.54493
3 1 -1.72246 14.5207 -5.05795
4 1 -1.7646 15.3617 -4.65901
5 1 -1.90726 16.2887 -4.41285
6 1 -1.13823 16.7157 -4.19952
7 1 -1.60308 16.847 -3.32207
8 1 -1.89257 17.6994 -3.84646
9 1 -1.39139 18.3364 -3.40225
10 1 -2.00644 18.4145 -2.68084
11 1 -2.77651 17.8637 -2.58171
12 1 -3.43334 17.5407 -3.21846
13 1 -4.39878 17.6722 -3.1612
14 1 -4.459 17.7737 -2.18585
15 1 -4.86313 17.057 -1.76853
16 1 -4.14199 16.5397 -1.5389
17 1 -3.6918 16.637 -0.669535
18 1 -2.96151 16.5157 -1.28803
19 1 -2.11622 16.7619 -1.64471
20 1 -1.26879 16.7836 -1.18689
21 1 -0.974707 17.6089 -0.781316