ITEM: TIMESTEP
0
ITEM: NUMBER OF ATOMS
128
ITEM: BOX BOUNDS mm mm mm
-6.4000000000000000e+01 6.4000000000000000e+01
-6.4000000000000000e+01 6.4000000000000000e+01
-6.4000000000000000e+01 6.4000000000000000e+01
ITEM: ATOMS id type x y z
1 1 -60.8 0 0
2 1 -59.85 0 0
3 1 -58.9 0 0
4 1 -57.95 0 0
5 1 -57 0 0
6 1 -56.05 0 0
7 1 -55.1 0 0
8 1 -54.15 0 0
9 1 -53.2 0 0
10 1 -52.25 0 0
11 1 -51.3 0 0
12 1 -50.35 0 0
13 1 -49.4 0 0
14 1 -48.45 0 0
15 1 -47.5 0 0
16 1 -46.55 0 0
17 1 -45.6 0 0
18 1 -44.65 0 0
19 1 -43.7 0 0
20 1 -42.75 0 0
21 1 -41.8 0 0
22 1 -40.85 0 0
23 1 -39.9 0 0
24 1 -38.95 0 0
25 1 -38 0 0
26 1 -37.05 0 0
27 1 -36.1 0 0
28 1 -35.15 0 0
29 1 -34.2 0 0
30 1 -33.25 0 0
31 1 -32.3 0 0
32 1 -31.35 0 0
33 1 -30.4 0 0
34 1 -29.45 0 0
35 1 -28.5 0 0
36 1 -27.55 0 0
37 1 -26.6 0 0
38 1 -25.65 0 0
39 1 -24.7 0 0
40 1 -23.75 0 0
41 1 -22.8 0 0
42 1 -21.85 0 0
43 1 -20.9 0 0
44 1 -19.95 0 0
45 1 -19 0 0
46 1 -18.05 0 0
47 1 -17.1 0 0
48 1 -16.15 0 0
49 1 -15.2 0 0
50 1 -14.25 0 0
51 1 -13.3 0 0
52 1 -12.35 0 0
53 1 -11.4 0 0
54 1 -10.45 0 0
55 1 -9.5 0 0
56 1 -8.55 0 0
57 1 -7.6 0 0
58 1 -6.65 0 0
59 1 -5.7 0 0
60 1 -4.75 0 0
61 1 -3.8 0 0
62 1 -2.85 0 0
63 1 -1.9 0 0
64 1 -0.95 0 0
65 1 0 0 0
66 1 0.95 0 0
67 1 1.9 0 0
68 1 2.85 0 0
69 1 3.8 0 0
70 1 4.75 0 0
71 1 5.7 0 0
72 1 6.65 0 0
73 1 7.6 0 0
74 1 8.55 0 0
75 1 9.5 0 0
76 1 10.45 0 0
77 1 11.4 0 0
78 1 12.35 0 0
79 1 13.3 0 0
80 1 14.25 0 0
81 1 15.2 0 0
82 1 16.15 0 0
83 1 17.1 0 0
84 1 18.05 0 0
85 1 19 0 0
86 1 19.95 0 0
87 1 20.9 0 0
88 1 21.85 0 0
89 1 22.8 0 0
90 1 23.75 0 0
91 1 24.7 0 0
92 1 25.65 0 0
93 1 26.6 0 0
94 1 27.55 0 0
95 1 28.5 0 0
96 1 29.45 0 0
97 1 30.4 0 0
98 1 31.35 0 0
99 1 32.3 0 0
100 1 33.25 0 0
101 1 34.2 0 0
102 1 35.15 0 0
103 1 36.1 0 0
104 1 37.05 0 0
105 1 38 0 0
106 1 38.95 0 0
107 1 39.9 0 0
108 1 40.85 0 0
109 1 41.8 0 0
110 1 42.75 0 0
111 1 43.7 0 0
112 1 44.65 0 0
113 1 45.6 0 0
114 1 46.55 0 0
115 1 47.5 0 0
116 1 48.45 0 0
117 1 49.4 0 0
118 1 50.35 0 0
119 1 51.3 0 0
120 1 52.25 0 0
121 1 53.2 0 0
122 1 54.15 0 0
123 1 55.1 0 0
124 1 56.05 0 0
125 1 57 0 0
126 1 57.95 0 0
127 1 58.9 0 0
128 1 59.85 0 0
ITEM: TIMESTEP
10000
ITEM: NUMBER OF ATOMS
128
ITEM: BOX BOUNDS mm mm mm
-6.4000000000000000e+01 6.4000000000000000e+01
-6.4000000000000000e+01 6.4000000000000000e+01
-6.4000000000000000e+01 6.4000000000000000e+01
ITEM: ATOMS id type x y z
1 1 -57.5801 -5.82303 -4.25009
2 1 -56.6732 -6.10976 -3.82519
3 1 -55.7135 -6.2895 -3.34189
4 1 -54.6209 -6.4168 -2.98933
5 1 -53.6744 -6.44883 -2.51316
6 1 -52.7633 -6.22689 -2.1875
7 1 -52.0804 -5.64183 -1.72609
8 1 -51.2157 -5.01786 -1.70309
9 1 -50.402 -4.36888 -1.53337
10 1 -49.6126 -3.68394 -1.10396
11 1 -48.9489 -2.72666 -0.926251
12 1 -47.9698 -2.2573 -1.05039
13 1 -47.2843 -1.52569 -1.31332
14 1 -46.7074 -0.657301 -1.74824
15 1 -46.0849 0.274914 -1.97981
16 1 -45.3388 1.07251 -2.2243
17 1 -44.4912 1.75009 -2.48709
18 1 -43.5368 2.43254 -2.52242
19 1 -42.6669 2.9377 -2.14696
20 1 -41.7999 3.56209 -2.2835
21 1 -40.6336 3.75623 -2.28822
22 1 -39.4936 3.72788 -2.2205
23 1 -38.3782 3.28785 -2.35516
24 1 -37.4528 3.00143 -2.63098
25 1 -36.6285 2.32386 -2.68739
26 1 -35.5574 1.83519 -2.53178
27 1 -34.5986 1.96376 -2.43997
28 1 -33.5764 1.95231 -2.05128
29 1 -32.5255 1.97379 -2.0991
30 1 -31.4296 2.23905 -1.84825
31 1 -30.3752 2.6306 -1.61228
32 1 -29.3477 2.71081 -1.16279
33 1 -28.3098 2.31325 -0.67025
34 1 -27.4513 1.68612 -0.206346
35 1 -26.512 1.19697 0.209263
36 1 -25.6654 0.627096 0.643332
37 1 -24.7159 0.229006 1.07877
38 1 -23.7691 -0.0738998 1.63523
39 1 -22.9323 -0.687082 1.83574
40 1 -21.8691 -1.1526 1.76488
41 1 -21.0131 -1.6711 1.63805
42 1 -20.0784 -2.05659 1.19604
43 1 -19.1142 -2.44945 1.17297
44 1 -18.0912 -2.90884 1.07846
45 1 -17.059 -3.11188 0.880093
46 1 -15.9615 -3.38465 0.832178
47 1 -14.8737 -3.31083 0.702585
48 1 -13.6728 -3.15144 0.621723
49 1 -12.6242 -3.11099 0.689118
50 1 -11.576 -3.18845 0.804019
51 1 -10.5025 -3.38932 0.702828
52 1 -9.44363 -3.5058 1.04832
53 1 -8.3933 -3.6535 1.35192
54 1 -7.31293 -3.98654 1.59558
55 1 -6.19439 -4.15435 1.51359
56 1 -5.05329 -3.93624 1.61
57 1 -4.04514 -4.0371 2.00436
58 1 -3.09592 -4.27442 2.31166
59 1 -2.14791 -4.59425 2.58717
60 1 -1.19741 -5.03443 2.5506
61 1 -0.30113 -5.59735 2.37676
62 1 0.592143 -6.19766 2.2308
63 1 1.57027 -6.5237 1.72282
64 1 2.57414 -6.3094 1.10019
65 1 3.44942 -6.34562 0.642514
66 1 4.41939 -6.33852 0.29413
67 1 5.50491 -6.29329 -0.105585
68 1 6.31994 -6.14872 -0.458944
69 1 7.36958 -5.76631 -0.753866
70 1 8.3773 -5.40196 -0.650302
71 1 9.58468 -5.33151 -0.881542
72 1 10.5978 -4.8151 -0.917102
73 1 11.4105 -4.14673 -0.757198
74 1 12.34 -3.54669 -1.02136
75 1 13.1532 -2.91562 -0.896505
76 1 14.0815 -2.52226 -0.537764
77 1 15.0878 -2.30278 -0.133606
78 1 16.0073 -2.11483 0.367358
79 1 16.9246 -1.83547 0.636564
80 1 17.902 -1.61723 0.241123
81 1 18.8464 -1.3039 -0.00729837
82 1 19.8012 -0.928747 0.0952005
83 1 20.5773 -0.296056 0.498043
84 1 21.4267 0.285295 0.845827
85 1 22.4869 0.590481 0.997013
86 1 23.5596 0.926381 1.24122
87 1 24.7247 1.06492 1.19764
88 1 25.7648 1.23867 1.64413
89 1 26.8598 1.4644 2.13175
90 1 27.9931 1.66677 2.50486
91 1 29.0598 1.77392 3.05013
92 1 30.1034 1.79369 3.63619
93 1 31.0404 1.65737 4.03292
94 1 31.9565 1.35069 4.2677
95 1 32.9632 1.01353 4.63674
96 1 33.9901 0.592088 4.79378
97 1 35.0307 0.161045 4.61307
98 1 36.1866 -0.145396 4.59705
99 1 37.3412 -0.443931 4.18052
100 1 38.2545 -0.838807 4.14906
101 1 39.0451 -1.34988 3.71181
102 1 39.6694 -2.16425 3.26418
103 1 40.273 -3.04769 3.27306
104 1 41.264 -3.36899 3.52255
105 1 42.4338 -3.70842 3.84066
106 1 43.3231 -4.31548 4.13009
107 1 44.1298 -4.82346 3.7925
108 1 45.0128 -5.18603 3.39884
109 1 45.9593 -5.4183 2.80166
110 1 46.7548 -5.23436 2.07395
111 1 47.4479 -5.18517 1.23349
112 1 48.3778 -4.73121 0.929316
113 1 49.244 -4.04736 0.815482
114 1 49.9565 -3.54352 0.274865
115 1 50.579 -2.72915 0.00265971
116 1 51.4935 -1.93405 -0.14044
117 1 52.4737 -1.61655 -0.741332
118 1 53.279 -1.71782 -1.4992
119 1 54.2527 -1.84026 -2.00145
120 1 55.1948 -1.81772 -2.57511
121 1 56.0511 -1.39844 -3.01047
122 1 56.4608 -0.681215 -3.64515
123 1 56.4478 0.107205 -4.31838
124 1 56.565 0.412157 -5.3518
125 1 56.4108 0.689779 -6.36551
126 1 56.501 0.717175 -7.54143
127 1 56.134 0.891025 -8.59117
128 1 55.9615 1.41492 -9.46807
ITEM: TIMESTEP
20000
ITEM: NUMBER OF ATOMS
128
ITEM: BOX BOUNDS mm mm mm
-6.4000000000000000e+01 6.4000000000000000e+01
-6.4000000000000000e+01 6.4000000000000000e+01
-6.4000000000000000e+01 6.4000000000000000e+01
ITEM: ATOMS id type x y z
1 1 -47.9031 0.294036 -5.43918
2 1 -47.2075 0.426655 -6.07754
3 1 -46.3422 0.543067 -6.42405
4 1 -45.4938 0.485672 -6.76839
5 1 -44.5967 0.480268 -6.62037
6 1 -43.6961 0.567163 -6.34689
7 1 -42.8438 0.700002 -5.99502
8 1 -41.9439 0.714801 -5.6819
9 1 -41.0958 0.885558 -5.31941
10 1 -40.2782 0.981975 -4.86544
11 1 -39.5137 1.41563 -4.49226
12 1 -38.6337 1.46945 -4.16392
13 1 -37.8846 1.17672 -3.77766
14 1 -37.1334 1.08276 -3.21331
15 1 -36.2417 0.924761 -2.93738
16 1 -35.3633 0.620265 -2.74887
17 1 -34.4834 0.476529 -2.63031
18 1 -33.6883 0.276145 -2.22318
19 1 -32.9403 -0.0138709 -1.78778
20 1 -32.2149 -0.467056 -1.40333
21 1 -31.4878 -0.973354 -1.00432
22 1 -30.9126 -1.55518 -0.540517
23 1 -30.5222 -2.22801 0.0219864
24 1 -30.1877 -2.98838 0.586461
25 1 -30.1681 -3.86795 0.837501
26 1 -29.823 -4.54675 1.44371
27 1 -29.4898 -4.91564 2.24115
28 1 -29.3302 -4.83661 3.14302
29 1 -28.8443 -4.75186 3.92692
30 1 -28.3677 -4.19406 4.46749
31 1 -27.9989 -3.57302 5.01963
32 1 -27.5162 -2.81753 5.36562
33 1 -27.1056 -1.98326 5.66484
34 1 -26.7395 -1.15526 5.51916
35 1 -25.9167 -0.705355 5.16217
36 1 -24.9718 -0.535157 4.92847
37 1 -24.0603 -0.367191 5.01932
38 1 -23.1332 -0.250036 5.03071
39 1 -22.2376 -0.039398 4.80201
40 1 -21.3699 0.361115 4.64041
41 1 -20.7618 0.985388 4.28246
42 1 -20.1168 1.6354 4.17304
43 1 -19.3907 2.05927 3.76604
44 1 -18.4816 2.35528 3.54771
45 1 -17.7564 2.75674 3.1452
46 1 -16.9373 2.62308 2.75346
47 1 -16.1156 2.61629 2.25754
48 1 -15.2777 2.35939 1.98227
49 1 -14.5021 1.87179 1.68296
50 1 -13.857 1.33735 1.27371
51 1 -13.0554 0.946466 1.02489
52 1 -12.1812 0.620825 0.856066
53 1 -11.4268 0.0535114 0.835068
54 1 -10.6528 -0.431216 0.864606
55 1 -9.6938 -0.403776 0.741327
56 1 -8.77554 -0.198131 0.495268
57 1 -7.85702 -0.114219 0.341631
58 1 -6.96213 -0.0762341 0.0486781
59 1 -6.04664 -0.0985454 -0.20853
60 1 -5.25051 -0.1771 -0.671547
61 1 -4.41971 -0.150374 -1.09573
62 1 -3.55342 -0.283107 -1.46939
63 1 -2.7067 -0.668019 -1.57139
64 1 -1.8929 -1.16231 -1.66146
65 1 -0.953405 -1.249 -1.8558
66 1 -0.0261427 -1.48261 -2.11613
67 1 0.809127 -1.69603 -2.47386
68 1 1.79035 -1.88402 -2.52331
69 1 2.67582 -2.00684 -2.18554
70 1 3.55537 -2.31074 -2.02571
71 1 4.35896 -2.66416 -1.56706
72 1 5.1498 -3.02429 -1.18413
73 1 6.06727 -3.12452 -0.858699
74 1 6.93399 -3.06723 -0.717119
75 1 7.85469 -3.00533 -0.801127
76 1 8.67669 -2.63128 -0.593616
77 1 9.49902 -2.16638 -0.730249
78 1 10.3678 -1.71689 -0.951881
79 1 11.2467 -1.27901 -0.888015
80 1 12.1648 -1.10233 -1.03513
81 1 13.0073 -1.05818 -1.42024
82 1 13.9355 -1.08336 -1.71676
83 1 14.8073 -0.911117 -2.05078
84 1 15.6959 -0.466112 -2.17109
85 1 16.5866 -0.157417 -2.08451
86 1 17.54 0.0600826 -1.92893
87 1 18.399 0.417048 -1.91662
88 1 19.3348 0.350027 -1.91597
89 1 20.1367 0.0246258 -2.20383
90 1 20.9883 -0.33165 -2.43536
91 1 21.9099 -0.613809 -2.59151
92 1 22.593 -0.935385 -3.18114
93 1 23.5135 -0.982539 -3.34131
94 1 24.4172 -0.82352 -3.71512
95 1 25.2132 -0.660396 -4.17417
96 1 25.9848 -0.438012 -4.65044
97 1 26.7983 0.0527968 -4.94753
98 1 27.6168 0.381595 -5.19333
99 1 28.4286 0.0355181 -5.65835
100 1 29.3405 -0.0849437 -5.89007
101 1 30.064 -0.417413 -6.3251
102 1 30.5186 -1.10704 -6.74198
103 1 31.1289 -1.74056 -7.11196
104 1 31.9675 -1.86274 -7.41237
105 1 32.8495 -1.62515 -7.66026
106 1 33.7692 -1.39937 -7.80643
107 1 34.6616 -1.09667 -8.01874
108 1 35.4627 -0.527152 -8.05336
109 1 36.3746 -0.268869 -8.12957
110 1 37.305 -0.242057 -8.29664
111 1 38.1352 -0.601527 -8.42542
112 1 39.0241 -0.867008 -8.72526
113 1 39.9206 -1.01691 -8.49986
114 1 40.6823 -1.36056 -8.09006
115 1 41.4117 -1.35667 -7.58372
116 1 42.0145 -1.17365 -6.88406
117 1 42.8514 -0.945448 -6.52702
118 1 43.5128 -1.41304 -6.03727
119 1 44.2492 -1.8104 -5.64045
120 1 45.1309 -2.07524 -5.57453
121 1 46.0911 -1.97113 -5.65615
122 1 47.0114 -1.74614 -5.86982
123 1 48.0218 -1.79768 -6.05377
124 1 48.9543 -1.88144 -6.12293
125 1 49.7135 -2.22999 -6.50785
126 1 50.6004 -2.01807 -6.84016
127 1 51.4517 -2.01036 -7.19104
128 1 52.357 -1.92663 -7.40191
