ITEM: TIMESTEP
280000
ITEM: NUMBER OF ATOMS
128
ITEM: BOX BOUNDS mm mm mm
-6.4000000000000000e+01 6.4000000000000000e+01
-6.4000000000000000e+01 6.4000000000000000e+01
-6.4000000000000000e+01 6.4000000000000000e+01
ITEM: ATOMS id type x y z
1 1 -11.8351 3.5066 8.56517
2 1 -11.1134 3.99954 8.3192
3 1 -10.6688 3.85391 7.52372
4 1 -9.86325 3.89144 7.05029
5 1 -9.5123 3.14846 7.48701
6 1 -9.12773 2.76698 6.69165
7 1 -8.60489 3.50844 6.47219
8 1 -7.90467 3.23841 5.89777
9 1 -7.06476 2.84174 5.98941
10 1 -7.03855 3.7442 5.67532
11 1 -7.03035 4.09067 4.81651
12 1 -7.56294 3.97415 4.05833
13 1 -7.6883 3.95082 3.12457
14 1 -7.12151 4.61768 2.75824
15 1 -6.90209 5.04097 3.55796
16 1 -5.96122 5.09246 3.51784
17 1 -5.55131 4.68637 2.76328
18 1 -4.81263 4.88726 3.32833
19 1 -4.55885 5.19337 4.17364
20 1 -4.35782 4.58519 4.80179
21 1 -4.60677 5.31991 5.30296
22 1 -3.84696 5.80924 5.18109
23 1 -3.52505 5.40815 4.3815
24 1 -2.69507 5.22359 4.01211
25 1 -2.74524 5.42831 3.13416
26 1 -1.90171 5.00302 2.90427
27 1 -0.961035 4.88388 3.0464
28 1 -0.374328 5.2807 2.37507
29 1 -1.07909 5.38817 1.76724
30 1 -1.92931 5.63087 1.31307
31 1 -2.17006 5.13477 0.535439
32 1 -1.91964 4.42892 -0.0509877
33 1 -2.81718 4.10923 -0.080937
34 1 -2.91504 3.57534 -0.841603
35 1 -3.57265 3.40464 -1.51083
36 1 -4.00282 3.07667 -0.762294
37 1 -4.16816 3.93035 -0.702889
38 1 -4.66587 4.69318 -0.55452
39 1 -4.4122 5.51924 -1.02749
40 1 -4.17663 6.44743 -0.970439
41 1 -3.35464 6.77171 -0.891143
42 1 -2.53279 6.2929 -0.8626
43 1 -1.68239 5.93551 -0.969121
44 1 -0.697305 5.79626 -0.908055
45 1 -0.925325 5.27413 -0.148028
46 1 -0.185088 4.72889 -0.11627
47 1 0.617463 5.18877 -0.345185
48 1 1.03692 4.37371 -0.292434
49 1 1.67285 4.21075 0.383947
50 1 2.23712 4.70072 0.999992
51 1 2.69622 4.31074 1.76244
52 1 3.46741 4.47759 2.24957
53 1 3.99535 4.86485 2.8703
54 1 3.89321 5.56405 3.49289
55 1 4.7435 5.83064 3.9675
56 1 5.54642 6.30678 4.11166
57 1 4.84583 6.93649 4.40524
58 1 5.31864 7.76892 4.52927
59 1 5.76632 8.22499 3.86447
60 1 6.45267 8.32144 3.26768
61 1 6.81228 8.30933 4.16379
62 1 7.50621 8.59971 3.58886
63 1 7.93552 7.83038 3.24642
64 1 8.13831 7.02589 2.80111
65 1 8.66723 6.65359 2.08722
66 1 8.93238 6.58928 1.21719
67 1 9.67062 6.42459 0.649684
68 1 9.60839 6.27574 -0.2789
69 1 9.98538 7.08655 -0.657719
70 1 10.074 6.57244 -1.4264
71 1 10.1308 5.82304 -1.9786
72 1 9.89219 5.13463 -1.37052
73 1 8.99875 5.34606 -1.51715
74 1 8.71112 4.71343 -2.09947
75 1 8.03381 4.46833 -2.6766
76 1 7.21568 4.19898 -3.1157
77 1 6.60755 4.68063 -3.66655
78 1 7.24088 5.39366 -3.34962
79 1 8.00636 5.43394 -3.99755
80 1 8.71389 4.85974 -4.34607
81 1 8.69988 4.43499 -5.15914
82 1 8.8117 4.12653 -6.00768
83 1 9.17701 4.96733 -6.4198
84 1 8.86935 5.644 -7.16592
85 1 8.05616 5.88081 -7.52348
86 1 7.31064 6.50604 -7.31598
87 1 6.85367 5.97974 -7.94545
88 1 7.41292 5.39222 -8.39048
89 1 8.21518 5.34753 -8.83696
90 1 8.95117 4.79828 -9.0043
91 1 8.41701 4.50192 -9.6952
92 1 7.47314 4.68218 -9.66352
93 1 6.56753 4.51096 -9.82281
94 1 5.85456 5.04919 -9.93982
95 1 5.04586 5.14431 -9.54788
96 1 5.48321 5.59791 -8.89847
97 1 5.07677 5.80657 -8.05184
98 1 4.21433 5.76088 -8.45917
99 1 4.10644 4.89127 -8.12585
100 1 4.61275 4.36851 -8.69664
101 1 5.04101 4.31924 -7.82877
102 1 4.32636 3.90385 -7.36156
103 1 4.18326 4.73008 -6.84085
104 1 5.05709 5.0997 -6.60542
105 1 4.64338 5.40421 -5.84361
106 1 4.19556 6.00759 -5.25755
107 1 4.21231 5.64756 -4.33178
108 1 3.56959 4.98349 -4.45583
109 1 2.69619 5.16037 -4.80691
110 1 1.86381 4.70426 -4.89429
111 1 0.974998 4.59059 -4.62876
112 1 0.639873 5.10242 -3.93655
113 1 -0.000220325 4.46519 -3.66061
114 1 -0.639836 4.20166 -4.32747
115 1 -1.274 3.60353 -4.59602
116 1 -1.12316 2.6857 -4.63088
117 1 -1.69831 2.05204 -5.11607
118 1 -2.56937 1.78807 -5.36058
119 1 -2.38751 1.43469 -6.24131
120 1 -1.71609 1.26709 -6.85175
121 1 -1.74138 0.343807 -6.698
122 1 -2.07166 -0.46757 -6.45236
123 1 -2.496 -1.28335 -6.62444
124 1 -2.31841 -2.13274 -6.36794
125 1 -3.19574 -2.09898 -5.87966
126 1 -3.67472 -2.81263 -6.33633
127 1 -3.02518 -2.67167 -7.03866
128 1 -2.85447 -2.56863 -7.97142
ITEM: TIMESTEP
290000
ITEM: NUMBER OF ATOMS
128
ITEM: BOX BOUNDS mm mm mm
-6.4000000000000000e+01 6.4000000000000000e+01
-6.4000000000000000e+01 6.4000000000000000e+01
-6.4000000000000000e+01 6.4000000000000000e+01
ITEM: ATOMS id type x y z
1 1 -3.04694 -3.51952 5.65683
2 1 -2.84455 -3.71072 4.77498
3 1 -3.29474 -4.37014 4.25863
4 1 -4.17782 -4.13982 4.47533
5 1 -4.77953 -4.7096 4.02488
6 1 -5.31287 -5.16223 4.65113
7 1 -5.45811 -4.73626 5.58049
8 1 -4.67423 -4.35457 5.99817
9 1 -5.08614 -3.55219 6.00994
10 1 -5.48177 -2.65721 6.14883
11 1 -4.85237 -1.97576 6.06069
12 1 -5.26279 -1.53189 5.34365
13 1 -5.15412 -1.61619 4.37456
14 1 -4.41854 -1.08436 4.30757
15 1 -4.53689 -0.205215 4.01422
16 1 -3.9759 0.524067 3.90716
17 1 -3.96167 1.007 4.72475
18 1 -3.84087 1.0141 5.59778
19 1 -2.9109 0.77647 5.62595
20 1 -2.76376 0.96913 4.73696
21 1 -2.76748 0.927224 3.79062
22 1 -2.4741 1.1928 2.95896
23 1 -1.99759 1.46853 2.17936
24 1 -1.40118 2.12401 2.53
25 1 -0.50872 2.05815 2.30562
26 1 0.165148 2.68696 2.56346
27 1 0.61129 3.38513 3.04778
28 1 0.724874 4.22404 3.52026
29 1 0.500558 3.55564 4.12603
30 1 0.0769147 3.872 4.92236
31 1 -0.319433 4.52508 5.53507
32 1 -0.00520577 5.11737 4.85451
33 1 0.366532 5.87277 5.207
34 1 0.755555 6.65439 4.92671
35 1 1.50624 6.36826 4.3573
36 1 1.59695 5.88278 3.60072
37 1 1.1066 5.59422 2.91104
38 1 1.67881 6.16749 2.43896
39 1 2.36764 6.23088 1.81353
40 1 2.88728 6.88921 1.36061
41 1 2.85791 7.09778 0.376568
42 1 3.39475 7.86292 0.354403
43 1 3.724 8.36833 1.0956
44 1 3.51961 8.63088 1.98167
45 1 3.64532 9.27055 2.65615
46 1 3.7568 8.45742 3.08836
47 1 3.42159 7.58698 3.21172
48 1 2.87855 6.84895 3.28166
49 1 3.38579 6.11125 3.51949
50 1 4.08422 6.62157 3.20151
51 1 4.84152 6.10322 2.9565
52 1 5.45445 6.41208 2.36625
53 1 5.42885 7.33156 2.15705
54 1 5.73057 6.76565 1.44713
55 1 6.46045 7.00374 0.909112
56 1 7.28212 6.8865 1.37682
57 1 7.81144 6.48429 1.95513
58 1 8.7431 6.51725 1.9271
59 1 9.49785 6.56587 2.50554
60 1 10.11 6.17853 1.9176
61 1 10.1633 6.73125 1.19519
62 1 10.0831 6.03974 0.550399
63 1 10.6577 5.51936 0.0252761
64 1 11.442 5.71061 -0.491272
65 1 11.3702 5.22878 -1.29024
66 1 10.6374 5.51099 -1.82978
67 1 11.0002 5.97421 -2.6159
68 1 11.9045 5.80825 -2.6855
69 1 12.121 4.87339 -2.90409
70 1 12.2841 3.96587 -3.12596
71 1 11.7236 3.2553 -2.78369
72 1 11.6873 3.20289 -1.88459
73 1 11.4367 4.08955 -2.03855
74 1 10.703 3.68559 -2.38891
75 1 9.8809 3.86909 -2.79776
76 1 9.05041 3.53308 -2.54155
77 1 8.15025 3.30199 -2.67083
78 1 7.92923 2.65843 -3.34219
79 1 7.05539 2.84205 -3.6741
80 1 7.47923 3.47041 -4.23294
81 1 6.98802 4.06897 -3.69381
82 1 7.83401 4.16782 -3.3244
83 1 8.7241 4.45469 -3.54622
84 1 9.58311 4.17685 -3.86472
85 1 8.99423 3.76766 -4.46667
86 1 8.63815 4.53386 -4.82296
87 1 8.95526 4.75351 -5.64173
88 1 8.09375 4.4159 -5.95087
89 1 7.76072 4.8211 -6.81506
90 1 7.09924 5.45175 -6.80642
91 1 6.22967 5.11132 -6.8551
92 1 5.95542 5.22533 -7.74031
93 1 6.11488 4.45483 -8.27583
94 1 5.96063 4.78385 -9.10714
95 1 5.81808 4.02577 -9.61321
96 1 5.28154 4.466 -10.2317
97 1 5.23216 5.37333 -10.3554
98 1 4.84304 6.14756 -10.6993
99 1 3.96896 5.76538 -10.6424
100 1 3.19578 5.25333 -10.3289
101 1 3.3223 5.16157 -9.42309
102 1 3.12988 4.98468 -8.53499
103 1 2.91742 5.8237 -8.12465
104 1 2.25231 6.33871 -8.58326
105 1 1.37517 6.14259 -8.95803
106 1 0.897649 5.3554 -8.61408
107 1 1.18724 4.44948 -8.7128
108 1 1.74925 3.94991 -8.15586
109 1 2.52367 3.66158 -8.55298
110 1 3.24937 3.23201 -8.09526
111 1 3.28818 2.43752 -8.57063
112 1 2.36996 2.55853 -8.63959
113 1 1.94624 1.99227 -9.26967
114 1 2.06653 1.26733 -9.88062
115 1 2.42817 0.400919 -10.0158
116 1 1.92853 0.315265 -10.7424
117 1 1.00602 0.371691 -10.6726
118 1 0.590559 0.617998 -11.4911
119 1 1.45807 1.02894 -11.7072
120 1 1.71633 0.538855 -12.4437
121 1 1.43106 -0.220542 -12.0057
122 1 0.854397 -0.929776 -11.9426
123 1 0.200618 -0.815434 -12.5625
124 1 -0.139676 -1.47116 -13.0817
125 1 -0.329412 -2.19729 -12.5895
126 1 -1.14858 -2.38507 -12.2399
127 1 -1.45726 -3.00779 -12.8684
128 1 -1.61068 -2.9057 -13.7539
ITEM: TIMESTEP
300000
ITEM: NUMBER OF ATOMS
128
ITEM: BOX BOUNDS mm mm mm
-6.4000000000000000e+01 6.4000000000000000e+01
-6.4000000000000000e+01 6.4000000000000000e+01
-6.4000000000000000e+01 6.4000000000000000e+01
ITEM: ATOMS id type x y z
1 1 -1.96839 2.63567 6.08848
2 1 -2.01792 1.93895 6.71741
3 1 -1.09385 1.60045 6.72117
4 1 -0.190348 1.79191 6.98768
5 1 -0.190841 2.53476 7.53849
6 1 0.427408 2.74017 6.84439
7 1 0.536887 2.47508 5.90809
8 1 0.639347 1.57372 5.6769
9 1 -0.200895 1.59877 5.28057
10 1 -0.363164 1.48811 4.3855
11 1 0.168851 0.855594 3.86606
12 1 0.133739 1.47619 3.10426
13 1 0.913356 1.08885 2.74935
14 1 1.27487 0.288548 2.39869
15 1 1.19233 -0.313189 1.70028
16 1 0.231608 -0.128773 1.54272
17 1 -0.355652 0.0493837 0.791131
18 1 -0.436694 0.0210192 -0.142291
19 1 0.264983 0.625385 -0.448986
20 1 0.778994 1.32098 -0.840549
21 1 1.01961 1.99735 -0.265481
22 1 1.21809 2.73134 0.316753
23 1 0.429319 3.21935 0.153251
24 1 0.320776 3.93901 0.793357
25 1 -0.55756 3.86632 1.06367
26 1 -0.837029 3.54608 0.258904
27 1 -0.824148 4.47602 0.184929
28 1 0.0666704 4.85046 0.308406
29 1 0.614568 4.58463 -0.44617
30 1 0.957034 5.45995 -0.670194
31 1 1.69904 4.76888 -0.627942
32 1 2.57059 5.06398 -0.369936
33 1 3.35088 5.49925 -0.723865
34 1 3.97218 5.75257 -0.0968869
35 1 4.33519 4.9213 0.157697
36 1 5.08301 5.47871 0.257443
37 1 5.33429 6.39628 0.121936
38 1 6.19337 6.47268 0.478009
39 1 6.6766 5.72748 0.0502002
40 1 7.21138 5.22969 0.670084
41 1 7.99379 5.2703 1.11829
42 1 8.45688 5.65514 0.406348
43 1 8.67505 6.54786 0.78346
44 1 8.47706 6.9332 -0.0606489
45 1 9.24218 7.38548 -0.366209
46 1 9.18128 8.34242 -0.24882
47 1 8.3562 8.07813 -0.718787
48 1 7.73469 7.39298 -0.566365
49 1 7.16263 7.74117 -1.21705
50 1 7.44502 8.22346 -2.00756
51 1 8.42833 8.09022 -1.83983
52 1 8.93629 7.36622 -2.22869
53 1 9.6438 7.10846 -1.63772
54 1 10.0826 7.20826 -2.43098
55 1 10.4139 6.37914 -2.58599
56 1 11.0996 5.84448 -3.00189
57 1 11.2567 6.1989 -3.85459
58 1 11.3899 7.08377 -3.49857
59 1 10.6413 7.69873 -3.41814
60 1 9.74349 7.95796 -3.48389
61 1 9.22304 7.73855 -4.21976
62 1 8.57921 7.50892 -4.90195
63 1 8.07956 8.30212 -5.06358
64 1 8.31247 8.13764 -5.99336
65 1 8.71969 7.251 -5.95976
66 1 8.14058 6.61129 -6.24119
67 1 8.21997 5.89761 -5.63117
68 1 7.26391 5.74797 -5.41804
69 1 7.03346 6.41281 -4.75588
70 1 6.12096 6.24357 -5.00739
71 1 5.71988 5.66827 -5.6005
72 1 5.12183 4.92748 -5.3837
73 1 4.33689 5.30028 -5.01785
74 1 3.75444 5.26092 -5.82011
75 1 3.24534 5.80196 -5.23319
76 1 3.18324 6.7137 -5.01979
77 1 3.23305 6.87927 -5.93577
78 1 2.39624 6.83096 -6.36819
79 1 2.10564 7.34329 -7.14236
80 1 1.83878 6.44935 -7.29929
81 1 1.67261 6.26193 -8.19029
82 1 2.15542 6.14286 -8.93945
83 1 2.77657 5.38034 -9.19037
84 1 3.21416 4.71518 -9.76453
85 1 3.57364 4.11234 -10.3444
86 1 4.49227 3.77782 -10.215
87 1 4.26359 3.65998 -11.1772
88 1 4.61043 3.50425 -12.0145
89 1 3.93965 3.95995 -12.5308
90 1 3.53639 3.9425 -13.4028
91 1 3.55621 3.13378 -13.8711
92 1 3.08938 2.33436 -13.939
93 1 3.5679 1.95075 -13.2226
94 1 3.59134 2.72514 -12.7302
95 1 3.92092 2.35564 -11.9056
96 1 3.13488 2.27021 -11.4324
97 1 2.68198 1.90996 -10.6593
98 1 2.34855 2.73187 -10.8871
99 1 1.97721 2.90807 -10.0523
100 1 1.19939 2.87133 -9.51109
101 1 1.60343 2.05708 -9.34055
102 1 1.19322 1.19218 -9.25977
103 1 0.407767 0.897799 -8.8177
104 1 -0.382954 1.32681 -8.75587
105 1 0.223467 1.97353 -8.45775
106 1 0.581665 1.85878 -7.52105
107 1 0.168045 1.6406 -6.71438
108 1 0.27067 1.15988 -5.92537
109 1 -0.363377 1.85731 -5.64493
110 1 -1.0727 1.22451 -5.66023
111 1 -1.79593 1.69954 -5.28419
112 1 -2.00804 0.855458 -4.88592
113 1 -1.72405 0.0809625 -4.49898
114 1 -1.05543 0.225434 -5.13491
115 1 -0.180352 0.308634 -4.85803
116 1 0.186221 0.0901062 -5.69767
117 1 0.592965 -0.736079 -5.42485
118 1 0.59044 -1.7678 -5.4816
119 1 0.323894 -2.49389 -5.01465
120 1 -0.422197 -2.70204 -5.5682
121 1 -1.32552 -2.53329 -5.67236
122 1 -2.0675 -2.17731 -6.03998
123 1 -1.5796 -2.34384 -6.83164
124 1 -1.92161 -3.01447 -7.37452
125 1 -2.33081 -3.47224 -6.61652
126 1 -3.03991 -4.07614 -6.4106
127 1 -3.74215 -3.5878 -6.06778
128 1 -3.95507 -3.10778 -6.86736
ITEM: TIMESTEP
310000
ITEM: NUMBER OF ATOMS
128
ITEM: BOX BOUNDS mm mm mm
-6.4000000000000000e+01 6.4000000000000000e+01
-6.4000000000000000e+01 6.4000000000000000e+01
-6.4000000000000000e+01 6.4000000000000000e+01
ITEM: ATOMS id type x y z
1 1 -1.35129 4.34595 8.53583
2 1 -2.10366 4.6599 9.02404
3 1 -1.75427 5.48398 9.00009
4 1 -0.845858 5.66612 8.68634
5 1 -1.36574 5.66468 7.86542
6 1 -2.3049 5.44945 7.98533
7 1 -2.29218 5.21186 6.99947
8 1 -2.87682 4.59694 6.63557
9 1 -3.2559 3.77368 6.88594
10 1 -2.75003 3.39651 6.15944
11 1 -2.58214 3.16158 5.22983
12 1 -1.77625 3.64848 4.83166
13 1 -1.03305 4.07388 5.23441
14 1 -0.377548 4.5106 4.69069
15 1 -0.885884 4.96749 3.99554
16 1 -0.880879 4.82648 3.005
17 1 -0.662917 3.93134 3.1992
18 1 -0.159548 4.23969 2.43188
19 1 0.585942 3.93633 1.91281
20 1 0.109267 3.92934 1.11702
21 1 -0.0164487 3.98805 0.166431
22 1 0.457004 4.3534 -0.563611
23 1 1.0105 5.08552 -0.876535
24 1 1.63794 5.70731 -1.18089
25 1 1.87832 6.40277 -0.54414
26 1 1.57981 6.92453 0.171432
27 1 2.49117 7.19269 0.244419
28 1 2.73365 6.81852 1.04606
29 1 1.82075 7.06312 1.38966
30 1 1.86695 7.63943 2.16124
31 1 1.67535 7.13286 2.92141
32 1 1.88299 7.5991 3.7027
33 1 2.37899 8.32656 3.34258
34 1 3.14498 8.5836 3.70497
35 1 3.46276 8.85363 4.51472
36 1 4.33255 9.2396 4.2446
37 1 5.21348 9.36643 3.95456
38 1 5.74967 9.54125 3.24386
39 1 5.17405 9.09129 2.65217
40 1 5.32744 8.30426 2.22429
41 1 5.99634 8.52963 1.62977
42 1 6.37726 8.6039 0.793347
43 1 5.83054 7.87116 0.481573
44 1 6.11928 7.27101 -0.189309
45 1 6.71384 6.60415 -0.0128936
46 1 6.94478 5.6658 -0.164466
47 1 7.04674 5.9823 -1.05179
48 1 7.9175 5.85574 -0.637806
49 1 8.00753 6.10777 -1.53319
50 1 8.33588 6.73641 -2.18403
51 1 9.11832 6.9652 -2.67697
52 1 9.22203 7.89174 -2.69007
53 1 8.29448 8.06419 -2.57314
54 1 7.80467 8.79083 -2.10071
55 1 8.36846 9.00981 -1.34392
56 1 8.43758 9.65957 -2.02273
57 1 8.52611 10.5029 -2.35783
58 1 8.41899 11.3772 -2.00359
59 1 7.6523 11.8867 -2.22777
60 1 6.83153 12.0415 -2.64106
61 1 6.74293 11.1173 -2.56281
62 1 5.85997 11.2191 -2.95281
63 1 5.28342 10.4822 -2.58199
64 1 6.03415 10.1712 -3.0612
65 1 6.83813 9.78212 -3.2416
66 1 7.14502 10.2558 -4.01617
67 1 7.42541 9.86083 -4.79415
68 1 7.68097 10.6982 -5.03303
69 1 8.15614 10.4805 -5.83892
70 1 7.88971 10.3058 -6.76677
71 1 7.68189 10.0154 -7.65375
72 1 8.08791 10.373 -8.35247
73 1 7.28793 10.9163 -8.49797
74 1 7.96963 11.467 -8.14671
75 1 8.21549 12.2721 -7.69974
76 1 7.31799 12.5192 -7.43176
77 1 7.15929 13.0597 -8.11672
78 1 6.52067 13.1328 -8.79889
79 1 5.94266 13.0339 -8.0859
80 1 5.01159 12.7336 -8.11943
81 1 4.90631 11.92 -8.49475
82 1 4.15558 11.8993 -9.02065
83 1 3.92367 10.9769 -8.66765
84 1 3.23986 10.4502 -8.30762
85 1 3.92638 9.81018 -8.14337
86 1 3.97821 8.87522 -8.07872
87 1 3.39251 8.71046 -8.82683
88 1 2.58923 8.21367 -8.83783
89 1 2.1677 7.48325 -8.35461
90 1 2.97644 7.0411 -8.53521
91 1 3.67478 6.49979 -8.90593
92 1 3.91843 6.68146 -8.01164
93 1 4.84045 6.63605 -8.14233
94 1 5.0709 6.16987 -8.88795
95 1 4.81353 5.80243 -9.72708
96 1 4.24653 5.04098 -9.61426
97 1 3.75807 4.53601 -10.2457
98 1 2.85019 4.29784 -10.2365
99 1 2.34136 4.09771 -9.50153
100 1 1.61236 3.58468 -9.21474
101 1 2.31679 3.02547 -8.96574
102 1 2.60813 3.01777 -8.01487
103 1 2.89245 2.63368 -7.21969
104 1 2.2499 1.9857 -7.37691
105 1 2.35884 1.41509 -6.63692
106 1 2.61818 1.76592 -5.78491
107 1 1.92267 1.27085 -5.48895
108 1 0.997575 1.03542 -5.52616
109 1 0.662712 0.496262 -6.24934
110 1 0.0523881 0.510467 -5.48805
111 1 -0.288403 0.0866887 -6.30289
112 1 -0.657207 -0.526517 -6.9727
113 1 -1.0384 -0.204155 -7.73476
114 1 -1.76672 -0.0196082 -8.34525
115 1 -2.36499 -0.562619 -7.82769
116 1 -3.18646 -0.736953 -8.32665
117 1 -3.96571 -0.34339 -8.70807
118 1 -4.30608 0.160719 -8.03057
119 1 -4.60199 -0.707698 -7.77405
120 1 -5.40505 -0.958033 -7.29925
121 1 -6.18227 -1.01234 -6.72601
122 1 -6.37845 -0.706013 -5.79064
123 1 -6.31935 -1.2896 -5.04303
124 1 -6.55911 -2.21934 -4.99942
125 1 -6.0027 -2.90298 -5.30439
126 1 -6.09747 -3.74874 -4.89249
127 1 -5.62016 -3.44771 -4.1057
128 1 -6.05705 -4.07846 -3.55663
ITEM: TIMESTEP
320000
ITEM: NUMBER OF ATOMS
128
ITEM: BOX BOUNDS mm mm mm
-6.4000000000000000e+01 6.4000000000000000e+01
-6.4000000000000000e+01 6.4000000000000000e+01
-6.4000000000000000e+01 6.4000000000000000e+01
ITEM: ATOMS id type x y z
1 1 6.33701 2.35714 11.6991
2 1 6.59012 2.41244 10.7943
3 1 5.99989 3.01864 10.3386
4 1 5.78712 2.33213 9.72055
5 1 5.19005 2.7887 9.15728
6 1 5.33137 1.83265 8.98611
7 1 4.61649 2.08044 8.36267
8 1 3.80577 1.58656 8.41522
9 1 3.39442 1.60843 7.54482
10 1 3.01018 2.38397 7.14185
11 1 3.06968 2.67684 6.25073
12 1 2.6215 3.2994 6.83579
13 1 1.83889 3.54984 7.18714
14 1 1.00688 3.5082 7.67687
15 1 0.290707 4.12589 7.89861
16 1 -0.151662 4.96793 7.82901
17 1 0.741997 5.26702 7.64795
18 1 0.271698 5.82093 7.03288
19 1 -0.381744 6.15795 7.64415
20 1 -1.13151 6.69228 7.71549
21 1 -1.03382 7.55949 7.28811
22 1 -1.09959 7.14707 6.42166
23 1 -1.42919 7.00301 5.54024
24 1 -2.16885 6.49302 5.36324
25 1 -2.60027 6.90931 4.66136
26 1 -2.08125 6.37777 4.05655
27 1 -2.02705 5.63213 4.57858
28 1 -1.90087 5.07161 5.2808
29 1 -1.37665 4.46826 4.82758
30 1 -1.7828 4.11826 4.09536
31 1 -1.3085 3.52136 3.55987
32 1 -1.69886 3.36746 2.71532
33 1 -0.850421 3.8025 2.51893
34 1 -0.725011 3.20125 1.76123
35 1 -0.0393218 3.702 1.39612
36 1 0.752531 4.00619 0.969051
37 1 1.09564 3.30023 1.48744
38 1 1.7516 3.54611 0.907597
39 1 2.20868 3.98707 1.60731
40 1 2.60531 4.62371 2.20679
41 1 1.93962 5.23748 1.87216
42 1 1.54305 5.94302 1.34927
43 1 2.17822 6.56378 1.7021
44 1 2.11445 6.23219 2.60145
45 1 2.40627 5.69561 3.32314
46 1 3.26028 5.96954 3.08015
47 1 3.92611 5.76577 2.4226
48 1 4.05958 6.37693 1.60638
49 1 3.5001 7.15079 1.3425
50 1 3.88504 6.61561 0.650818
51 1 4.52298 6.0894 0.13226
52 1 5.24679 6.20941 -0.458832
53 1 4.85516 5.67603 -1.15925
54 1 4.4219 5.83676 -1.99841
55 1 4.82437 5.9693 -2.87619
56 1 5.7136 5.75968 -3.06475
57 1 5.80848 6.6676 -3.40738
58 1 5.41307 7.31873 -3.96427
59 1 4.69506 7.39614 -3.31891
60 1 5.39429 7.27123 -2.68068
61 1 6.29256 7.51556 -2.79736
62 1 6.56748 8.17479 -2.11069
63 1 6.27574 8.99402 -1.82042
64 1 6.25602 9.07985 -0.872719
65 1 5.93868 9.78772 -0.320422
66 1 5.13522 10.1184 -0.0452084
67 1 5.25302 10.906 0.533632
68 1 5.34687 11.8361 0.377333
69 1 4.82268 12.5639 0.680307
70 1 4.34399 13.239 0.288233
71 1 3.9781 12.5691 -0.295237
72 1 3.47962 13.3768 -0.427069
73 1 3.66371 14.1927 -0.832407
74 1 3.7187 14.7723 -1.5905
75 1 3.59235 15.1338 -2.43293
76 1 2.64007 15.0398 -2.30366
77 1 2.41704 14.2261 -1.94387
78 1 1.75603 13.7248 -1.50964
79 1 2.04806 12.9823 -2.03273
80 1 2.35926 13.4894 -2.80938
81 1 3.06831 14.0988 -3.05318
82 1 3.69131 13.9697 -3.72649
83 1 4.41354 13.8106 -4.35281
84 1 4.42747 12.9959 -3.99744
85 1 4.13522 13.0692 -3.05207
86 1 3.28807 12.7337 -2.7843
87 1 2.72914 12.6132 -3.50818
88 1 2.41803 13.0108 -4.29821
89 1 1.549 13.2435 -4.17135
90 1 0.868807 12.7065 -4.03267
91 1 1.10362 12.4281 -4.8767
92 1 1.03858 11.5321 -5.11352
93 1 0.565756 10.7701 -5.26176
94 1 0.212603 9.9622 -5.58228
95 1 -0.187763 9.68137 -4.74319
96 1 0.115534 8.8149 -4.40921
97 1 0.695206 8.94048 -3.68787
98 1 1.14485 8.24606 -4.094
99 1 1.24246 7.42715 -4.65967
100 1 1.16191 7.05152 -5.4904
101 1 0.893703 6.25679 -5.99816
102 1 1.24776 5.86489 -5.25862
103 1 0.520579 5.55777 -4.72248
104 1 0.210479 4.79882 -5.25995
105 1 1.13408 4.54559 -5.46412
106 1 1.68834 4.02376 -5.96718
107 1 2.20619 3.41421 -6.51737
108 1 2.53987 4.20334 -6.91809
109 1 2.96406 4.31771 -7.7883
110 1 3.25741 3.86298 -8.50361
111 1 2.64387 4.17834 -9.1913
112 1 1.84727 3.74008 -9.48668
113 1 1.27447 3.44948 -10.1566
114 1 1.15798 4.15783 -10.813
115 1 0.925351 3.44511 -11.3257
116 1 0.0442465 3.47068 -11.676
117 1 -0.515189 2.74126 -11.372
118 1 -1.19447 2.36251 -11.8489
119 1 -1.04497 1.76785 -12.5366
120 1 -0.491034 1.03381 -12.3773
121 1 -1.24078 0.638338 -12.8103
122 1 -1.67718 1.30818 -13.2495
123 1 -2.3387 1.53816 -12.6405
124 1 -2.62437 0.681461 -12.9252
125 1 -2.52905 -0.0997247 -12.4658
126 1 -2.28374 -0.485678 -13.2958
127 1 -1.86622 -0.717977 -14.0598
128 1 -0.951938 -0.523961 -13.8187
ITEM: TIMESTEP
330000
ITEM: NUMBER OF ATOMS
128
ITEM: BOX BOUNDS mm mm mm
-6.4000000000000000e+01 6.4000000000000000e+01
-6.4000000000000000e+01 6.4000000000000000e+01
-6.4000000000000000e+01 6.4000000000000000e+01
ITEM: ATOMS id type x y z
1 1 9.03923 7.2992 -1.52896
2 1 8.32423 6.74067 -1.30246
3 1 7.93791 7.61063 -1.48459
4 1 7.68601 7.4405 -0.623339
5 1 7.33401 8.13119 -0.0402403
6 1 7.29804 8.31438 0.854465
7 1 6.39056 8.30092 0.464579
8 1 5.86802 8.44479 -0.330525
9 1 5.42022 7.79638 0.16323
10 1 4.80509 8.4603 0.311327
11 1 4.59392 9.02905 0.98583
12 1 4.33237 9.16762 1.83645
13 1 5.15253 9.30997 2.21724
14 1 5.73705 10.0112 2.35902
15 1 5.17128 10.6202 2.83646
16 1 4.60148 10.6946 3.57563
17 1 4.5324 9.8004 3.31284
18 1 3.71647 9.34287 3.07415
19 1 3.28461 8.47915 3.02065
20 1 3.21646 7.6932 3.57296
21 1 2.67134 7.54944 2.75463
22 1 3.01792 6.69507 2.90143
23 1 2.4504 6.20761 3.45238
24 1 2.48099 6.47301 4.3457
25 1 1.62809 6.29931 3.95157
26 1 1.11884 5.69343 3.43927
27 1 0.280579 5.24095 3.40155
28 1 -0.572728 5.56453 3.2675
29 1 -0.531765 6.34288 2.72192
30 1 0.33233 6.66147 2.69435
31 1 0.134355 6.63037 1.79586
32 1 0.528077 5.77593 1.63469
33 1 -0.141135 5.69657 0.927594
34 1 -1.04776 5.91904 0.795095
35 1 -0.903199 4.96589 1.01922
36 1 -0.677339 4.5976 0.213668
37 1 0.305097 4.70926 0.348611
38 1 0.052935 5.32797 -0.356093
39 1 0.708712 5.93479 -0.0845096
40 1 1.50851 6.28255 -0.427032
41 1 1.09593 6.99122 -0.791744
42 1 0.328224 7.43704 -1.08703
43 1 -0.309494 8.1116 -1.11467
44 1 0.500899 8.49893 -0.940047
45 1 0.610381 9.15312 -1.64427
46 1 1.20455 9.66061 -2.13242
47 1 1.15648 9.67259 -3.08558
48 1 0.802264 8.9032 -3.48804
49 1 1.11081 8.11154 -3.84584
50 1 0.398527 7.86675 -4.44223
51 1 0.655763 6.97286 -4.21536
52 1 1.50357 7.09635 -4.63387
53 1 2.10899 7.68199 -4.26447
54 1 3.01296 7.83365 -4.27928
55 1 3.57651 8.37685 -4.8765
56 1 3.59475 8.53127 -5.85512
57 1 4.52353 8.46377 -5.73914
58 1 4.36103 8.95318 -6.5186
59 1 4.46572 9.87375 -6.53524
60 1 4.55834 10.2622 -5.6507
61 1 3.97874 9.63559 -5.12896
62 1 4.03255 9.70252 -4.21018
63 1 4.61175 10.0113 -3.5509
64 1 4.92235 10.889 -3.74322
65 1 5.54624 10.9849 -3.07337
66 1 5.15379 11.3621 -2.19019
67 1 4.57888 12.0844 -2.02545
68 1 4.77875 11.9045 -1.15397
69 1 5.06608 12.018 -0.238123
70 1 4.34938 12.5355 0.0898263
71 1 3.52497 12.1226 -0.106603
72 1 2.62178 12.0579 -0.273522
73 1 2.32372 12.8716 0.136233
74 1 2.90042 13.6749 0.161084
75 1 3.32341 14.1375 0.815777
76 1 3.00789 14.9848 0.594916
77 1 2.3477 15.4986 0.0321648
78 1 1.89011 16.236 -0.385789
79 1 1.01866 16.1871 -0.0133336
80 1 1.04426 16.2623 -0.934057
81 1 0.622559 15.7728 -1.56816
82 1 0.682097 14.9176 -1.94485
83 1 0.979616 14.1862 -1.38257
84 1 0.635112 13.4674 -1.87859
85 1 0.800101 13.23 -2.73171
86 1 0.522908 12.4158 -2.22949
87 1 0.0677781 11.6437 -2.44557
88 1 -0.602256 11.5659 -1.83999
89 1 -0.781588 11.0737 -1.04821
90 1 -0.518285 10.5429 -1.78183
91 1 -1.12457 9.89234 -2.15588
92 1 -0.702144 10.4053 -2.85817
93 1 -0.657623 9.50279 -3.10974
94 1 -0.833779 9.15008 -3.98222
95 1 -1.22597 8.31806 -3.86888
96 1 -0.616074 8.00695 -4.55329
97 1 -1.2453 8.1018 -5.31781
98 1 -0.892505 7.93515 -6.1555
99 1 -0.684863 7.20942 -6.70614
100 1 -0.18904 7.17119 -7.51136
101 1 0.0767908 6.71301 -8.34669
102 1 0.847147 6.26209 -8.56991
103 1 0.519731 5.84586 -9.34451
104 1 0.533831 4.90078 -9.03758
105 1 0.282625 4.99328 -9.95799
106 1 1.13753 4.79302 -10.2374
107 1 2.03816 4.99839 -10.3101
108 1 2.85577 5.13397 -10.9121
109 1 2.37572 4.79476 -11.6237
110 1 2.74422 4.87304 -12.4633
111 1 3.54321 5.188 -12.9375
112 1 3.43952 6.16183 -13.0581
113 1 3.12451 6.85404 -12.5046
114 1 2.64908 6.66305 -11.7159
115 1 3.48071 6.31306 -11.4805
116 1 3.47674 5.46505 -11.8632
117 1 4.1418 4.77798 -11.976
118 1 3.59736 3.97486 -11.7878
119 1 3.25405 3.89656 -12.6489
120 1 2.81267 4.22997 -13.3922
121 1 1.85526 4.34933 -13.4584
122 1 1.84785 3.42394 -13.2698
123 1 1.00457 3.34054 -12.79
124 1 0.620878 2.76928 -12.1998
125 1 1.607 2.77217 -12.1449
126 1 1.16442 1.93221 -11.9783
127 1 0.751131 1.18391 -11.6006
128 1 0.698379 1.96397 -11.1463
ITEM: TIMESTEP
340000
ITEM: NUMBER OF ATOMS
128
ITEM: BOX BOUNDS mm mm mm
-6.4000000000000000e+01 6.4000000000000000e+01
-6.4000000000000000e+01 6.4000000000000000e+01
-6.4000000000000000e+01 6.4000000000000000e+01
ITEM: ATOMS id type x y z
1 1 8.88608 6.07913 -1.43797
2 1 8.99476 6.88328 -0.996137
3 1 9.21249 7.56043 -1.60122
4 1 8.48717 8.17611 -1.3246
5 1 7.91456 7.64277 -1.88562
6 1 7.11142 7.70835 -1.41705
7 1 6.86137 6.82663 -1.25806
8 1 7.42471 6.56714 -0.514724
9 1 7.47553 7.03924 0.305965
10 1 7.29467 6.43234 0.981971
11 1 7.36458 6.40952 1.86451
12 1 6.46015 6.59342 2.26724
13 1 5.53774 6.6195 2.23943
14 1 5.01865 6.89646 2.97738
15 1 5.47659 7.62488 2.62125
16 1 5.05013 8.37277 2.04891
17 1 4.58382 9.14408 2.25026
18 1 4.05391 9.87227 1.99745
19 1 3.4684 9.15747 2.26106
20 1 3.88675 9.09219 3.14481
21 1 2.97975 9.20054 3.41152
22 1 2.40534 8.45529 3.3434
23 1 1.67242 7.97872 2.95178
24 1 0.88155 8.15579 2.49429
25 1 0.823072 9.05127 2.35384
26 1 0.529635 8.59686 1.56588
27 1 0.474345 9.41325 1.05924
28 1 0.728768 10.3201 1.25659
29 1 -0.123311 10.5451 0.973401
30 1 -1.01623 10.3718 1.37926
31 1 -1.17227 10.2746 0.419688
32 1 -1.21688 9.50328 0.859563
33 1 -1.37738 8.89787 1.52957
34 1 -1.75274 8.54857 2.27883
35 1 -1.7028 7.77734 1.76841
36 1 -1.60917 7.85366 0.87581
37 1 -2.5353 7.66967 1.08613
38 1 -2.74142 8.43953 1.57636
39 1 -2.79027 8.86047 0.723096
40 1 -2.52794 9.77809 0.594628
41 1 -3.11282 9.48232 -0.204024
42 1 -2.74134 9.68848 -1.04794
43 1 -2.43038 9.97217 -1.90933
44 1 -1.67621 9.64739 -2.37361
45 1 -1.66014 8.71488 -2.31806
46 1 -2.14245 7.96074 -1.99105
47 1 -1.27231 7.69297 -2.17117
48 1 -0.693747 7.33241 -2.76989
49 1 0.103178 7.53226 -3.1319
50 1 0.0982913 7.72667 -4.02768
51 1 0.893743 7.37188 -4.30637
52 1 1.19009 6.51567 -4.64099
53 1 2.0713 6.26134 -4.61904
54 1 2.55947 5.63423 -5.16379
55 1 2.88392 5.87542 -6.04079
56 1 2.16952 5.25475 -6.09964
57 1 1.92559 4.75816 -6.90075
58 1 2.52758 4.56938 -7.62614
59 1 2.08377 5.2477 -8.06948
60 1 2.50994 5.97029 -8.52838
61 1 2.82933 6.82288 -8.24665
62 1 3.11828 7.57664 -7.71444
63 1 3.04655 7.92309 -6.86638
64 1 3.19591 8.86897 -6.90821
65 1 3.62612 9.69572 -6.82328
66 1 3.2051 10.1997 -7.472
67 1 2.89192 10.9273 -6.94069
68 1 3.32603 11.7082 -6.72176
69 1 3.53706 12.6284 -6.57487
70 1 4.48822 12.67 -6.77707
71 1 4.36977 11.76 -6.99135
72 1 4.44113 10.9751 -7.4063
73 1 5.30153 11.0166 -7.57542
74 1 6.01272 11.2037 -7.02952
75 1 6.40713 12.0134 -6.7711
76 1 6.84014 11.7647 -5.95149
77 1 7.26019 12.5138 -5.57196
78 1 7.70174 11.7913 -5.12728
79 1 7.1345 11.2563 -4.59394
80 1 6.2552 11.4991 -4.29979
81 1 5.70595 10.7372 -4.47069
82 1 5.06428 11.1058 -5.0439
83 1 4.16866 11.3148 -4.83256
84 1 4.67903 11.8631 -4.3405
85 1 5.15584 12.3053 -5.04741
86 1 5.14156 13.2576 -4.94308
87 1 4.28226 13.5777 -4.73722
88 1 4.33513 13.3639 -3.82388
89 1 3.8873 12.9644 -3.09466
90 1 3.15164 13.4234 -2.85461
91 1 2.57331 12.7556 -3.12994
92 1 2.37248 12.0232 -3.62739
93 1 2.27108 11.3731 -4.2748
94 1 1.76266 11.1388 -5.06419
95 1 0.910897 11.1181 -5.5437
96 1 0.70382 10.3451 -5.06532
97 1 -0.215439 10.538 -4.88458
98 1 -0.760887 9.7683 -4.99126
99 1 -1.00815 9.69803 -5.87619
100 1 -1.72103 10.2662 -6.11715
101 1 -2.50612 9.82587 -5.96878
102 1 -2.56265 8.88869 -5.86397
103 1 -2.27646 8.90238 -4.99716
104 1 -1.48554 8.4872 -4.94779
105 1 -1.35489 8.45883 -5.85703
106 1 -0.919545 8.11475 -6.63391
107 1 -0.225425 8.78385 -6.99768
108 1 -0.919075 8.71088 -7.62702
109 1 -0.287489 8.04069 -8.03649
110 1 -0.726844 7.24506 -8.14676
111 1 -0.890687 6.49141 -7.59324
112 1 -0.655196 5.89669 -8.26304
113 1 -1.57989 5.56219 -8.22793
114 1 -2.22975 5.16014 -7.62734
115 1 -2.3482 4.3776 -7.06989
116 1 -2.12995 3.4936 -7.30832
117 1 -2.2635 2.80617 -8.02138
118 1 -1.87142 3.30072 -8.77729
119 1 -1.5214 3.07798 -9.6243
120 1 -1.84725 2.44964 -10.2628
121 1 -1.37438 2.47012 -11.1219
122 1 -2.25965 2.5827 -11.3243
123 1 -2.90055 2.27993 -10.711
124 1 -3.80387 2.51172 -10.7651
125 1 -3.64484 1.71792 -11.2376
126 1 -4.05728 1.06912 -11.8334
127 1 -4.29289 0.225062 -12.3075
128 1 -4.90411 0.407304 -11.5453
ITEM: TIMESTEP
350000
ITEM: NUMBER OF ATOMS
128
ITEM: BOX BOUNDS mm mm mm
-6.4000000000000000e+01 6.4000000000000000e+01
-6.4000000000000000e+01 6.4000000000000000e+01
-6.4000000000000000e+01 6.4000000000000000e+01
ITEM: ATOMS id type x y z
1 1 12.1498 5.53474 0.308516
2 1 12.3312 5.32226 1.22143
3 1 12.5316 6.14487 1.69611
4 1 11.6658 6.36593 1.48996
5 1 10.968 6.6053 0.877665
6 1 11.3604 7.41339 1.14959
7 1 11.198 8.21964 1.54467
8 1 10.351 8.39634 1.87434
9 1 10.0806 8.44017 2.79114
10 1 9.65313 9.21874 2.4389
11 1 9.48783 10.1114 2.59351
12 1 8.61996 10.1847 2.33148
13 1 8.26884 10.7759 3.01115
14 1 7.36853 10.478 2.98511
15 1 7.45345 9.60648 2.56289
16 1 8.00684 9.11808 2.01247
17 1 8.17499 8.51069 1.2678
18 1 7.76855 8.38329 0.376037
19 1 6.94532 8.72657 0.621442
20 1 6.47451 9.43002 0.160574
21 1 6.67506 10.1484 0.665108
22 1 5.89263 10.6831 0.602544
23 1 6.25886 11.2502 1.18627
24 1 5.67075 11.9813 1.19992
25 1 5.81571 12.7231 1.75354
26 1 6.45861 12.1428 2.07174
27 1 6.79213 11.9701 2.95056
28 1 7.45101 12.3191 3.47021
29 1 6.85149 13.0414 3.27673
30 1 6.91962 13.4097 2.46689
31 1 6.23737 14.0485 2.53423
32 1 6.50371 14.7038 1.93714