ITEM: TIMESTEP
30000
ITEM: NUMBER OF ATOMS
128
ITEM: BOX BOUNDS mm mm mm
-6.4000000000000000e+01 6.4000000000000000e+01
-6.4000000000000000e+01 6.4000000000000000e+01
-6.4000000000000000e+01 6.4000000000000000e+01
ITEM: ATOMS id type x y z
1 1 -28.85 1.14793 -5.49393
2 1 -29.7616 1.12329 -5.70252
3 1 -30.1295 0.342802 -5.41974
4 1 -30.8496 0.233784 -4.80693
5 1 -31.6983 0.109988 -4.48628
6 1 -32.1453 -0.592881 -4.95547
7 1 -31.7214 -1.45967 -4.9789
8 1 -31.3858 -2.33941 -5.28846
9 1 -31.3327 -3.03829 -5.97931
10 1 -30.9889 -2.39783 -6.55917
11 1 -30.9645 -1.60809 -7.13362
12 1 -30.2464 -1.17964 -6.78234
13 1 -29.9853 -0.290818 -6.61488
14 1 -29.1782 0.0679197 -6.65438
15 1 -28.3606 -0.247652 -7.03235
16 1 -27.9685 0.213639 -6.3532
17 1 -27.8894 1.05628 -5.84447
18 1 -27.0089 1.10304 -5.48737
19 1 -26.5973 0.94075 -4.6329
20 1 -25.9373 1.06388 -3.98087
21 1 -25.2694 0.658186 -3.45431
22 1 -24.8114 0.222321 -2.8377
23 1 -23.9312 0.435808 -2.68282
24 1 -23.5735 0.464642 -3.51874
25 1 -23.2988 -0.0812803 -4.23713
26 1 -22.5654 0.389825 -3.77941
27 1 -22.2219 1.23432 -3.96118
28 1 -21.3516 1.41894 -3.55443
29 1 -20.5299 1.42505 -3.28226
30 1 -19.6973 1.05076 -2.77265
31 1 -19.5376 0.108239 -2.57274
32 1 -18.9 -0.607784 -2.44209
33 1 -18.4985 -1.40563 -2.23127
34 1 -17.6282 -1.80017 -2.0661
35 1 -16.782 -1.55354 -2.16371
36 1 -15.85 -1.77196 -1.9321
37 1 -15.3567 -0.961379 -1.82595
38 1 -14.6385 -0.605141 -1.30965
39 1 -13.802 -0.920962 -1.61187
40 1 -13.3108 -1.67564 -1.57392
41 1 -12.7558 -1.03003 -1.21622
42 1 -11.8672 -0.717321 -0.957356
43 1 -10.9658 -0.965699 -0.759925
44 1 -10.1703 -0.941947 -1.22134
45 1 -9.26602 -1.18228 -1.27387
46 1 -8.53812 -1.47831 -0.779705
47 1 -7.81485 -1.86569 -1.10286
48 1 -7.02673 -1.28639 -0.977491
49 1 -6.81829 -0.579104 -1.55073
50 1 -6.22856 -0.0877834 -2.08356
51 1 -5.45837 0.162541 -1.63384
52 1 -4.70409 0.0424833 -2.1715
53 1 -4.70753 -0.898208 -2.20045
54 1 -3.93147 -0.597953 -2.49693
55 1 -3.10965 -0.230164 -2.97994
56 1 -2.70415 -0.0856548 -3.82178
57 1 -3.05167 0.781491 -3.58476
58 1 -2.55422 1.45246 -3.04862
59 1 -3.2479 2.04941 -3.11181
60 1 -2.73805 2.56195 -2.52829
61 1 -1.9523 2.54046 -3.07885
62 1 -1.24173 3.15911 -3.19211
63 1 -0.622211 2.80328 -2.58451
64 1 0.132449 3.28698 -2.31049
65 1 0.21744 4.21466 -2.57771
66 1 1.01945 3.7502 -2.36094
67 1 1.42207 2.86999 -2.25218
68 1 2.26259 2.57488 -2.57448
69 1 2.93917 2.26427 -1.99608
70 1 3.62689 2.82397 -2.03085
71 1 4.04818 2.02926 -1.7353
72 1 4.92315 2.38143 -1.7849
73 1 5.23256 2.96494 -2.46424
74 1 5.44063 3.46115 -1.70285
75 1 6.28499 3.71489 -1.24431
76 1 6.76974 4.20888 -1.89054
77 1 7.3898 3.61423 -1.51201
78 1 8.29396 3.21077 -1.64909
79 1 9.15941 2.87186 -1.522
80 1 9.9073 3.22153 -1.96942
81 1 10.6579 2.70696 -2.19133
82 1 10.8457 1.99181 -2.79317
83 1 11.6231 2.13449 -3.27733
84 1 12.5195 1.98273 -3.72071
85 1 13.2141 2.5268 -3.92015
86 1 13.5897 3.03397 -3.13918
87 1 14.3888 2.57894 -3.01838
88 1 14.6521 2.093 -2.25637
89 1 15.3741 2.38909 -1.68882
90 1 16.0996 2.99999 -1.72377
91 1 16.9831 3.22456 -1.68095
92 1 17.0008 4.13361 -1.49776
93 1 16.8779 3.96496 -2.43326
94 1 17.4924 3.44837 -2.82911
95 1 18.3384 3.74495 -2.96134
96 1 18.6392 3.25787 -3.74536
97 1 19.2175 3.48006 -4.42173
98 1 18.7639 2.66717 -4.74704
99 1 19.4861 2.12938 -4.31805
100 1 20.2356 2.61083 -4.65316
101 1 21.0753 2.95788 -4.73379
102 1 21.8702 3.20919 -4.29446
103 1 22.7302 2.82458 -4.29197
104 1 22.639 2.67536 -3.36316
105 1 23.4842 2.72686 -3.02582
106 1 24.1778 2.91996 -3.60266
107 1 24.8538 3.55638 -3.58122
108 1 24.789 4.51926 -3.72743
109 1 25.6767 4.21916 -3.65192
110 1 26.5878 4.19949 -3.99709
111 1 27.5456 4.13143 -3.8889
112 1 28.028 4.45777 -4.585
113 1 28.2205 5.08387 -5.27254
114 1 28.384 4.37481 -5.83246
115 1 28.967 3.84973 -5.2836
116 1 29.5339 3.91799 -4.57381
117 1 30.5043 3.88863 -4.63157
118 1 30.2321 4.64656 -4.98782
119 1 30.594 4.27293 -5.75142
120 1 31.4589 3.93534 -5.6063
121 1 32.2093 4.11791 -6.15353
122 1 32.7042 4.28186 -5.40961
123 1 33.1951 3.56523 -5.05739
124 1 32.5907 3.10892 -4.54736
125 1 31.746 3.12945 -4.98476
126 1 31.2061 2.57389 -4.38435
127 1 30.6403 1.79664 -4.34989
128 1 30.4265 1.35811 -5.21817
ITEM: TIMESTEP
40000
ITEM: NUMBER OF ATOMS
128
ITEM: BOX BOUNDS mm mm mm
-6.4000000000000000e+01 6.4000000000000000e+01
-6.4000000000000000e+01 6.4000000000000000e+01
-6.4000000000000000e+01 6.4000000000000000e+01
ITEM: ATOMS id type x y z
1 1 -24.4409 0.736827 -3.97279
2 1 -25.0623 0.987359 -4.66887
3 1 -25.1073 1.17573 -5.58214
4 1 -24.6101 1.89717 -5.0595
5 1 -24.4333 2.71571 -5.4582
6 1 -24.6612 2.45877 -6.3867
7 1 -23.8164 2.28983 -6.69073
8 1 -23.7672 2.85441 -7.42252
9 1 -23.5076 3.31083 -8.20138
10 1 -23.5657 4.17701 -8.66063
11 1 -23.2243 4.94731 -8.1491
12 1 -22.8356 5.06281 -7.31751
13 1 -22.1412 4.87684 -6.76474
14 1 -21.3006 4.55678 -6.78268
15 1 -21.6717 4.3042 -5.92878
16 1 -20.9657 4.25063 -5.30992
17 1 -20.7321 3.61954 -4.60777
18 1 -20.0637 2.99395 -4.83933
19 1 -20.0361 2.27256 -4.27179
20 1 -19.2743 1.78511 -4.57754
21 1 -19.5913 0.911629 -4.8884
22 1 -19.4745 0.26332 -5.55552
23 1 -19.0541 -0.104419 -6.29765
24 1 -18.2956 -0.205274 -5.77368
25 1 -18.1504 0.300882 -4.98245
26 1 -17.1713 0.240216 -5.14849
27 1 -17.018 -0.271214 -4.34949
28 1 -17.5523 0.204797 -3.64936
29 1 -17.8183 -0.248054 -2.79193
30 1 -16.9578 -0.503383 -2.6561
31 1 -16.0607 -0.753612 -2.9167
32 1 -15.3039 -1.39285 -2.78556
33 1 -14.4883 -1.3978 -3.28268
34 1 -14.4892 -1.96042 -4.08193
35 1 -13.8479 -1.32475 -4.18089
36 1 -13.9394 -0.338245 -4.48295
37 1 -13.6322 0.104906 -3.70086
38 1 -13.2243 0.397726 -2.94675
39 1 -12.5088 0.0926722 -2.40156
40 1 -11.7216 -0.42257 -2.40612
41 1 -10.8181 -0.725913 -2.36592
42 1 -10.2009 -1.22155 -2.95593
43 1 -9.36643 -1.64419 -3.16242
44 1 -8.87575 -1.13273 -2.57625
45 1 -8.08358 -0.696802 -2.42388
46 1 -7.23163 -0.965902 -2.65825
47 1 -6.62805 -0.510306 -3.21153
48 1 -6.14747 -0.545142 -2.43173
49 1 -6.42987 0.0373062 -1.76877
50 1 -6.48115 0.307505 -0.890044
51 1 -5.5883 0.330015 -1.10274
52 1 -5.05404 -0.448945 -0.833582
53 1 -5.51864 -0.879709 -0.122828
54 1 -5.48356 -1.36579 0.720944
55 1 -4.88014 -0.641484 0.952142
56 1 -4.27584 0.0753524 0.886199
57 1 -3.85058 0.787712 0.464074
58 1 -2.94605 1.01886 0.299427
59 1 -3.02407 1.44117 1.13829
60 1 -2.1775 1.73854 0.817288
61 1 -1.97648 2.57453 0.414283
62 1 -1.27191 3.14855 0.698207
63 1 -0.863656 3.24053 -0.152971
64 1 -0.130934 3.10251 0.384831
65 1 0.628089 3.67144 0.650593
66 1 1.58111 3.95877 0.61148
67 1 2.15581 4.35123 -0.0508921
68 1 3.04129 4.65994 -0.124806
69 1 3.63619 4.81466 0.584752
70 1 4.38161 5.31841 0.425307
71 1 5.21566 5.73624 0.414335
72 1 6.09242 6.09373 0.244121
73 1 6.06391 6.82493 -0.378312
74 1 6.69481 6.15634 -0.531879
75 1 7.35065 5.55315 -0.329389
76 1 7.78342 5.53399 0.477027
77 1 8.35789 4.80989 0.433597
78 1 9.22878 5.03749 0.358307
79 1 9.74336 5.50719 -0.274366
80 1 10.2873 6.30668 -0.240944
81 1 10.6263 7.13629 -0.401254
82 1 11.4647 7.32833 -0.796496
83 1 12.1131 7.22649 -0.10586
84 1 12.5017 7.60826 -0.857529
85 1 13.3622 7.37122 -0.600015
86 1 13.9735 6.71455 -0.999471
87 1 14.728 6.27667 -1.36209
88 1 15.0251 5.43421 -1.65931
89 1 15.8986 5.32491 -1.97426
90 1 16.787 5.51713 -1.93121
91 1 16.9491 6.27471 -2.42283
92 1 17.1471 7.03153 -1.91201
93 1 17.9853 7.45143 -2.04703
94 1 18.2652 6.66611 -1.61419
95 1 19.1847 6.56866 -1.38639
96 1 19.1383 5.74983 -1.79634
97 1 19.7951 5.12111 -1.41917
98 1 19.8612 4.27559 -1.75936
99 1 20.4025 4.45787 -2.47141
100 1 20.9896 3.79415 -2.6741
101 1 21.3589 3.03815 -2.19747
102 1 21.3117 2.22449 -1.71398
103 1 20.7167 1.57714 -2.06541
104 1 20.2962 2.01051 -1.31484
105 1 20.2671 2.73961 -0.684445
106 1 19.923 3.11838 -1.46182
107 1 19.2774 3.20547 -2.20498
108 1 19.3265 2.96549 -3.06523
109 1 19.7026 2.58352 -3.76908
110 1 19.6344 2.19745 -4.62064
111 1 20.0138 1.55773 -4.02437
112 1 20.5083 1.47435 -4.8314
113 1 21.4316 1.34966 -4.89452
114 1 22.1732 1.86918 -4.60824
115 1 22.8625 1.33958 -5.0453
116 1 22.7593 0.386007 -5.13808
117 1 23.6647 0.257605 -4.8107
118 1 24.5542 0.558723 -4.88691
119 1 25.2958 0.810912 -4.28778
120 1 24.6674 1.01105 -3.67371
121 1 24.6731 1.9302 -3.67835
122 1 24.8548 2.3821 -4.5134
123 1 25.6779 2.58471 -4.91075
124 1 25.7023 3.27482 -5.58018
125 1 26.4209 3.26647 -6.31964
126 1 26.1199 3.22225 -7.17133
127 1 25.9876 2.33795 -7.52169
128 1 26.4543 2.46758 -8.32337
ITEM: TIMESTEP
50000
ITEM: NUMBER OF ATOMS
128
ITEM: BOX BOUNDS mm mm mm
-6.4000000000000000e+01 6.4000000000000000e+01
-6.4000000000000000e+01 6.4000000000000000e+01
-6.4000000000000000e+01 6.4000000000000000e+01
ITEM: ATOMS id type x y z
1 1 -23.017 1.9937 -1.36433
2 1 -22.7558 1.82781 -2.23152
3 1 -22.9729 0.881451 -2.18215
4 1 -22.8076 0.806261 -3.11021
5 1 -22.6959 -0.0235632 -3.59565
6 1 -22.8654 -0.920666 -3.64146
7 1 -22.6664 -1.64576 -4.2199
8 1 -21.929 -2.2351 -4.0872
9 1 -21.3321 -2.78795 -3.5892
10 1 -20.9583 -2.46786 -2.74068
11 1 -21.572 -1.89029 -3.0352
12 1 -21.4988 -0.952564 -2.81942
13 1 -21.2205 -0.29013 -3.40784
14 1 -20.3958 -0.309887 -3.80782
15 1 -19.8907 0.142166 -4.41583
16 1 -19.4383 0.0497199 -3.59461
17 1 -19.386 -0.719325 -3.11803
18 1 -19.2237 -1.59536 -2.99815
19 1 -19.1273 -1.75642 -3.94068
20 1 -18.5678 -2.47243 -3.52794
21 1 -18.6543 -2.97048 -4.41163
22 1 -17.9393 -3.4234 -3.93034
23 1 -17.2656 -2.94661 -4.34709
24 1 -16.3809 -3.05309 -4.78406
25 1 -15.6617 -2.40991 -4.75122
26 1 -15.7924 -1.8005 -4.14305
27 1 -15.5814 -0.929906 -4.47417
28 1 -15.5284 -0.378475 -5.23482
29 1 -14.7357 -0.216725 -5.66643
30 1 -13.8794 0.020806 -5.90582
31 1 -13.5786 0.930348 -5.76076
32 1 -13.0416 1.04836 -4.99196
33 1 -12.9268 1.50554 -4.18742
34 1 -13.5496 2.11771 -3.7683
35 1 -13.5038 2.46491 -2.89683
36 1 -12.7036 1.95711 -3.1429
37 1 -11.9191 2.44209 -3.34355
38 1 -11.7103 2.49742 -4.28897
39 1 -11.0636 2.0932 -4.8769
40 1 -10.3234 2.25758 -5.34731
41 1 -10.0637 2.87424 -6.02307
42 1 -9.6457 3.78518 -6.11348
43 1 -9.04037 3.74055 -5.42151
44 1 -8.10356 3.85552 -5.48277
45 1 -7.1752 3.91297 -5.60654
46 1 -6.29911 3.6909 -5.73027
47 1 -6.53128 3.33183 -4.91111
48 1 -6.09892 3.99838 -4.43475
49 1 -5.25918 4.29321 -4.13983
50 1 -4.3789 4.68375 -3.99584
51 1 -4.35804 5.51495 -4.42237
52 1 -3.46406 5.09945 -4.47682
53 1 -2.84458 4.76254 -5.02959
54 1 -2.22329 4.92789 -4.33052
55 1 -2.41245 5.85255 -4.6194
56 1 -1.96139 6.12259 -3.80746
57 1 -1.62836 7.02025 -3.70878
58 1 -1.72032 7.96452 -3.8377
59 1 -1.92524 8.65125 -3.20501
60 1 -1.27269 8.33255 -2.63965
61 1 -0.314187 8.40404 -2.77999
62 1 0.5163 8.5669 -3.18536
63 1 1.1825 8.56335 -3.84948
64 1 1.71666 7.78681 -3.82766
65 1 2.16267 7.04604 -3.52838
66 1 2.39565 7.71931 -2.95545
67 1 1.7596 7.93366 -2.25788
68 1 2.19139 7.65169 -1.42367
69 1 2.76364 6.8933 -1.5628
70 1 3.60159 7.13118 -1.83371
71 1 4.17653 7.8607 -1.91251
72 1 5.01692 7.79585 -2.31951
73 1 5.58733 7.76067 -1.59709
74 1 5.97102 7.84576 -0.724745
75 1 6.87977 7.56086 -0.813769
76 1 6.99372 7.01258 -0.0941647
77 1 7.16175 6.0636 -0.209104
78 1 7.813 5.60696 0.209624
79 1 7.75702 4.98513 0.907384
80 1 8.62488 4.7816 1.20069
81 1 8.91675 4.0916 0.580354
82 1 9.37611 4.209 -0.26212
83 1 9.35564 3.43051 -0.848878
84 1 10.2092 3.33882 -1.1378
85 1 11.1335 3.26376 -1.36451
86 1 11.642 4.01596 -1.64286
87 1 12.4327 3.66225 -1.34179
88 1 12.6269 4.23624 -2.04594
89 1 13.1149 4.59112 -1.32699
90 1 13.9555 4.74241 -1.69042
91 1 14.5352 4.72226 -0.994792
92 1 14.6216 5.09096 -0.166662
93 1 14.8353 4.30928 0.244833
94 1 15.21 3.51398 -0.078424
95 1 15.9979 3.63302 -0.647748
96 1 15.7021 4.53687 -0.71711
97 1 16.1385 4.20244 -1.53021
98 1 16.0545 3.29858 -1.64977
99 1 16.6118 3.76399 -2.39817
100 1 16.7837 3.14253 -3.1623
101 1 17.5738 3.6329 -2.96626
102 1 17.6621 3.02086 -3.64497
103 1 18.2767 3.71991 -3.8599
104 1 18.2392 3.59074 -4.76419
105 1 17.9861 3.85232 -5.62884
106 1 17.8733 4.73369 -5.96407
107 1 18.0201 5.50819 -5.49044
108 1 18.8329 5.77248 -5.78681
109 1 18.4212 6.55574 -6.06974
110 1 19.2693 6.88039 -6.33701
111 1 19.8642 6.5373 -7.013
112 1 20.5326 7.05859 -6.55043
113 1 21.2328 7.19567 -5.90316
114 1 22.1539 7.49724 -5.66735
115 1 22.7964 7.73623 -4.91465
116 1 23.7748 7.79819 -5.06167
117 1 24.177 7.04398 -5.3855
118 1 25.0075 7.50742 -5.26144
119 1 24.8021 7.30555 -4.34725
120 1 24.1421 7.60454 -3.7486
121 1 24.3672 7.31586 -2.87877
122 1 25.1617 7.49848 -3.37188
123 1 25.8092 6.82306 -3.558
124 1 26.7774 7.00321 -3.57341
125 1 27.654 7.13231 -3.96053
126 1 27.1735 7.97186 -3.89902
127 1 27.6701 8.74912 -3.74534
128 1 27.3031 9.51133 -3.31586
ITEM: TIMESTEP
60000
ITEM: NUMBER OF ATOMS
128
ITEM: BOX BOUNDS mm mm mm
-6.4000000000000000e+01 6.4000000000000000e+01
-6.4000000000000000e+01 6.4000000000000000e+01
-6.4000000000000000e+01 6.4000000000000000e+01
ITEM: ATOMS id type x y z
1 1 -24.7158 -2.13278 -0.685432
2 1 -25.5482 -2.23049 -0.221418
3 1 -25.1152 -1.39331 -0.072081
4 1 -25.7656 -0.682955 -0.144258
5 1 -25.0869 -0.317826 -0.556575
6 1 -24.3333 -0.595711 -1.0094
7 1 -23.8278 -1.26486 -1.54289
8 1 -23.3082 -1.92313 -1.18649
9 1 -22.4489 -2.3186 -1.27606
10 1 -21.7698 -1.74872 -1.41222
11 1 -21.4216 -1.39691 -2.18714
12 1 -20.9523 -1.07655 -2.98509
13 1 -20.3461 -1.30326 -2.39747
14 1 -19.4399 -1.18269 -2.61021
15 1 -19.6016 -0.844327 -1.75006
16 1 -19.5443 0.160739 -1.80404
17 1 -20.0902 0.302984 -2.56301
18 1 -19.2859 0.768982 -2.66366
19 1 -18.5221 1.20114 -3.09278
20 1 -18.3854 2.01094 -3.54914
21 1 -17.7228 2.61593 -3.44572
22 1 -17.5135 2.61503 -2.5
23 1 -16.7015 3.05712 -2.54922
24 1 -16.3876 3.06046 -3.45787
25 1 -16.2578 3.86425 -3.91622
26 1 -16.6466 4.07741 -4.69684
27 1 -16.1222 4.43789 -5.37516
28 1 -16.505 5.16103 -5.7917
29 1 -16.0172 5.96715 -5.56301
30 1 -15.5179 5.89358 -6.39547
31 1 -15.324 5.58844 -7.29225
32 1 -14.81 6.37763 -7.31944
33 1 -13.9227 6.45785 -7.12577
34 1 -13.2276 6.75209 -7.67858
35 1 -12.2895 6.7181 -7.36553
36 1 -12.8167 7.16761 -6.74477
37 1 -12.5497 7.28459 -5.77971
38 1 -11.9846 7.89734 -5.38059
39 1 -11.345 7.54665 -4.74673
40 1 -10.8135 7.03649 -4.18833
41 1 -10.2897 7.66961 -3.637
42 1 -9.81984 8.06331 -2.92608
43 1 -10.4303 8.04031 -2.20976
44 1 -9.72756 8.5951 -2.02806
45 1 -8.89773 8.18921 -2.05137
46 1 -8.05118 7.77103 -1.88229
47 1 -8.30531 6.90939 -2.02852
48 1 -7.88148 6.64012 -2.8232
49 1 -6.90534 6.72916 -2.82916
50 1 -6.13852 7.23939 -2.7609
51 1 -5.8299 7.77612 -2.02886
52 1 -5.48875 8.04444 -1.2107
53 1 -5.50531 7.12828 -1.09173
54 1 -5.07478 6.75455 -1.90984
55 1 -4.40778 7.09061 -2.47369
56 1 -3.68881 7.62505 -2.67763
57 1 -3.19831 8.19473 -2.09839
58 1 -3.47583 9.02615 -2.33963
59 1 -2.57176 9.14851 -2.59203
60 1 -1.95584 8.63623 -2.08358
61 1 -1.04938 8.43743 -2.30472
62 1 -0.139176 8.45054 -2.11581
63 1 0.369283 7.98249 -2.87994
64 1 0.931378 7.24923 -2.93832
65 1 0.86182 6.33455 -2.73298
66 1 1.65293 5.8049 -2.97127
67 1 2.28276 5.19895 -3.18821
68 1 1.95559 4.46846 -3.7121
69 1 2.63325 4.85416 -4.20598
70 1 3.23346 5.49672 -4.62381
71 1 3.26342 6.37355 -5.02005
72 1 3.61098 5.78346 -5.63237
73 1 2.89492 5.20133 -5.78445
74 1 2.82406 4.48922 -5.26657
75 1 3.52421 4.37698 -4.62207
76 1 3.97353 5.03407 -4.14729
77 1 4.74398 5.5335 -4.19816
78 1 5.30702 6.10657 -3.692
79 1 6.21563 6.09198 -3.567
80 1 7.12242 6.24478 -3.3761
81 1 7.24901 5.9607 -2.47663
82 1 7.9269 5.35249 -2.71075
83 1 8.34508 4.63124 -3.11696
84 1 8.79404 4.07175 -2.51331
85 1 8.89014 3.32035 -3.08304
86 1 9.34715 3.97734 -3.63491
87 1 10.1573 4.39953 -4.01806
88 1 10.4035 5.29268 -3.99283
89 1 11.33 5.342 -3.87093
90 1 11.7747 6.10813 -4.01768
91 1 12.7144 5.9687 -4.20472
92 1 13.359 5.65398 -3.66824
93 1 14.2723 5.57663 -3.52859
94 1 15.1039 5.21703 -3.29663
95 1 15.5524 4.72221 -2.69074
96 1 16.1132 4.73257 -1.96505
97 1 16.6744 4.32629 -1.34178
98 1 17.4328 3.80693 -0.918591
99 1 17.4619 3.50545 -1.79376
100 1 18.1803 3.8899 -2.19205
101 1 18.36 3.93104 -3.08046
102 1 18.911 4.23982 -3.84249
103 1 19.0928 4.57249 -4.75445
104 1 19.722 5.15605 -4.40873
105 1 20.2833 4.43752 -4.1426
106 1 20.8614 4.51045 -3.34554
107 1 21.8213 4.53268 -3.50213
108 1 22.2323 5.25842 -3.16508
109 1 22.4013 6.10308 -3.42381
110 1 22.0082 7.01709 -3.59939
111 1 22.4053 6.73788 -4.42421
112 1 21.9935 7.44906 -4.9271
113 1 22.0713 6.7687 -5.55287
114 1 22.8054 6.84588 -6.21332
115 1 23.3419 7.12521 -6.9508
116 1 22.9671 7.25887 -7.83628
117 1 23.5347 7.58439 -8.47545
118 1 23.433 8.27655 -9.14346
119 1 24.284 8.59974 -9.26186
120 1 24.7759 9.36854 -9.39889
121 1 25.49 9.98616 -9.5357
122 1 26.2657 10.3877 -9.24611
123 1 26.3027 11.3121 -9.03461
124 1 26.8524 11.2501 -9.82228
125 1 26.6486 11.667 -10.6066
126 1 26.1664 10.8489 -10.5601
127 1 26.1422 9.98687 -10.8896
128 1 26.2275 9.35653 -10.2518
ITEM: TIMESTEP
70000
ITEM: NUMBER OF ATOMS
128
ITEM: BOX BOUNDS mm mm mm
-6.4000000000000000e+01 6.4000000000000000e+01
-6.4000000000000000e+01 6.4000000000000000e+01
-6.4000000000000000e+01 6.4000000000000000e+01
ITEM: ATOMS id type x y z
1 1 -13.8673 -4.01584 -3.24924
2 1 -13.3096 -3.22456 -3.12886
3 1 -12.7825 -3.09927 -2.31957
4 1 -13.568 -2.74409 -1.99288
5 1 -13.7158 -2.66941 -1.07133
6 1 -13.7592 -2.69082 -0.143192
7 1 -14.6657 -2.82318 0.110283
8 1 -15.1051 -2.22274 0.677776
9 1 -14.5061 -1.63871 1.13477
10 1 -13.8872 -0.992266 1.02862
11 1 -13.5395 -0.212235 0.601661
12 1 -13.7273 -0.554714 -0.218551
13 1 -14.3958 0.117196 -0.323857
14 1 -13.8257 0.822528 -0.0454867
15 1 -14.0384 1.52257 0.493461
16 1 -14.7771 1.58031 1.05534
17 1 -14.8495 2.25716 1.65203
18 1 -14.7939 2.85223 0.867844
19 1 -13.7985 2.87362 0.629095
20 1 -13.8575 2.43039 1.44454
21 1 -13.8906 3.36787 1.60444
22 1 -13.6972 4.19196 1.18976
23 1 -13.0172 4.85574 1.0902
24 1 -12.2376 4.28476 1.16265
25 1 -11.5986 4.98636 1.43475
26 1 -11.246 5.29331 0.671606
27 1 -11.6488 6.11748 0.581946
28 1 -10.9468 6.69289 0.851665
29 1 -11.1534 7.22085 0.1252
30 1 -10.8143 7.1294 -0.729654
31 1 -10.5049 6.44833 -0.132046
32 1 -9.9712 6.95974 0.453981
33 1 -9.05799 6.65431 0.226576
34 1 -9.53024 6.67633 -0.611788
35 1 -9.38853 7.31166 -1.25485
36 1 -8.89329 7.9221 -1.85112
37 1 -8.00732 7.91347 -1.98346
38 1 -7.24722 8.47434 -1.89382
39 1 -6.35035 8.11221 -1.69394
40 1 -6.37335 7.37186 -2.23874
41 1 -6.41156 6.52344 -2.65394
42 1 -6.34816 6.03318 -3.44046
43 1 -5.48613 6.0684 -3.10235
44 1 -4.68851 5.7091 -3.43243
45 1 -3.83336 6.00132 -3.46875
46 1 -2.98337 5.68448 -3.65322
47 1 -2.05519 5.81377 -3.48435
48 1 -1.13208 6.16589 -3.42862
49 1 -0.81078 7.0544 -3.50868
50 1 -0.686727 7.92165 -2.96693
51 1 -0.580344 7.2812 -2.22884
52 1 0.230875 7.20706 -2.71031
53 1 0.347776 6.38744 -3.10419
54 1 -0.196613 5.72891 -2.64184
55 1 0.0156395 4.92115 -3.01818
56 1 0.398916 4.39275 -3.69125
57 1 0.405144 3.98719 -4.52816
58 1 1.02857 4.05023 -5.22834
59 1 1.77647 4.50052 -5.63652
60 1 2.02378 3.7112 -5.12236
61 1 2.41601 2.86052 -5.34607
62 1 3.1694 2.34857 -5.43193
63 1 3.32076 1.65249 -6.10152
64 1 3.2385 0.679203 -6.12487
65 1 3.56249 0.523205 -5.25852
66 1 4.1499 0.982667 -4.69391
67 1 4.91738 0.752731 -5.19438
68 1 5.46815 0.999159 -5.91301
69 1 6.33511 0.661937 -6.03594
70 1 6.42542 0.833945 -5.13158
71 1 6.82119 0.0533438 -4.88276
72 1 7.41469 0.723452 -4.52357
73 1 8.15081 1.30154 -4.75372
74 1 8.45727 2.18772 -4.53684
75 1 7.78871 2.34139 -5.22897
76 1 7.60374 2.39461 -6.12399
77 1 8.43632 2.71479 -6.25149
78 1 8.74616 3.41911 -6.71628
79 1 8.69924 3.56827 -5.7404
80 1 8.39395 4.4412 -5.68894
81 1 8.47061 4.11178 -4.76352
82 1 7.93399 3.49707 -4.31836
83 1 8.21725 3.85182 -3.43285
84 1 8.78674 4.5736 -3.56918
85 1 9.29273 4.21712 -2.86668
86 1 9.9716 4.13656 -3.52151
87 1 9.8325 3.21957 -3.87191
88 1 9.31819 3.60326 -4.54686
89 1 9.96789 4.02053 -5.02535
90 1 9.93021 4.77372 -4.53334
91 1 10.7179 4.57198 -5.18098
92 1 11.666 4.50899 -5.10017
93 1 11.9409 5.46337 -5.2377
94 1 12.4964 5.54129 -4.42281
95 1 13.3505 5.59767 -4.05173
96 1 14.0189 5.63416 -3.39217
97 1 14.0014 4.69766 -3.60186
98 1 14.9786 4.95418 -3.85705
99 1 15.0375 3.98047 -3.83857
100 1 14.8719 3.99653 -4.79679
101 1 15.7776 3.59106 -4.83149
102 1 16.2703 4.12738 -5.49641
103 1 15.9863 5.01796 -5.44913
104 1 16.4478 5.83237 -5.54553
105 1 17.311 5.52779 -5.15169
106 1 17.7815 5.79952 -5.92055
107 1 18.5497 5.9999 -5.42862
108 1 19.2675 5.39437 -5.27291
109 1 19.232 4.79085 -6.00066
110 1 20.1711 4.96619 -6.07438
111 1 21.0961 4.82307 -6.13924
112 1 21.631 4.18948 -5.71586
113 1 21.9515 5.07314 -5.7717
114 1 21.7304 5.43978 -6.64119
115 1 22.5584 5.68528 -7.07534
116 1 23.4811 5.68436 -7.11637
117 1 23.1721 4.99771 -7.6659
118 1 23.8641 4.40528 -7.9314
119 1 24.2342 3.96236 -8.69666
120 1 24.9366 4.54618 -8.38053
121 1 24.9725 5.00907 -9.24273
122 1 24.1704 5.43321 -9.36178
123 1 24.2947 6.35877 -9.15131
124 1 24.4625 6.70322 -8.30752
125 1 24.6651 7.50938 -8.84634
126 1 25.4553 6.93372 -9.0313
127 1 26.0469 6.50261 -9.60288
128 1 26.8117 6.40879 -9.01843
ITEM: TIMESTEP
80000
ITEM: NUMBER OF ATOMS
128
ITEM: BOX BOUNDS mm mm mm
-6.4000000000000000e+01 6.4000000000000000e+01
-6.4000000000000000e+01 6.4000000000000000e+01
-6.4000000000000000e+01 6.4000000000000000e+01
ITEM: ATOMS id type x y z
1 1 -15.1558 -5.38105 -7.77065
2 1 -15.9228 -4.90195 -7.46502
3 1 -16.0648 -4.00516 -7.28296
4 1 -15.9699 -3.15054 -6.82834
5 1 -15.115 -2.72625 -6.85112
6 1 -14.9348 -1.83406 -6.35725
7 1 -14.2973 -1.32366 -6.78783
8 1 -13.7334 -0.590713 -6.87158
9 1 -13.6893 0.331852 -6.51869
10 1 -13.4731 0.405651 -5.63468
11 1 -13.1491 1.14292 -5.10793
12 1 -13.5904 1.3543 -4.31819
13 1 -13.9331 0.931717 -3.59079
14 1 -14.4445 0.353343 -3.02204
15 1 -14.3358 0.693723 -2.12384
16 1 -14.5349 0.650871 -1.21406
17 1 -13.8215 1.18508 -1.4027
18 1 -13.4108 1.39623 -0.55865
19 1 -12.7553 1.81735 0.00512225
20 1 -11.9216 2.18293 0.317154
21 1 -10.9836 2.25276 0.369694
22 1 -11.304 2.99216 0.823401
23 1 -10.7769 3.78442 0.698312
24 1 -9.89669 3.58047 0.667066
25 1 -9.06513 3.09205 0.521846
26 1 -8.18514 3.04084 0.818083
27 1 -7.21074 2.9421 0.79547
28 1 -7.08663 2.07687 0.527049
29 1 -6.54467 2.28081 -0.169364
30 1 -6.26345 2.59407 -1.01399
31 1 -6.95225 3.04116 -1.5642
32 1 -6.7134 3.82639 -1.1361
33 1 -7.45542 4.34069 -1.23313
34 1 -6.98041 5.02401 -0.816158
35 1 -6.26921 5.56854 -0.453099
36 1 -5.60611 5.98341 0.0446077
37 1 -5.23734 6.86596 0.0187453
38 1 -4.50957 6.64486 -0.575387
39 1 -3.93909 6.55326 -1.29915
40 1 -4.5293 6.29915 -2.06012
41 1 -4.18715 5.54832 -2.52481
42 1 -4.41723 5.02825 -1.72225
43 1 -4.22053 4.05051 -1.87583
44 1 -3.31054 3.8616 -1.54801
45 1 -3.8849 3.20838 -1.22894
46 1 -3.15213 2.71823 -1.01539
47 1 -2.2813 2.82693 -0.656909
48 1 -1.64605 3.45418 -0.676761
49 1 -1.3038 2.69091 -0.187629
50 1 -0.714525 2.44812 0.522241
51 1 0.168521 2.74196 0.580287
52 1 0.348296 3.14248 1.40977
53 1 1.20789 3.06995 1.8216
54 1 1.75732 2.68366 1.08261
55 1 2.06489 2.45689 1.92466
56 1 2.64922 1.70191 1.78378
57 1 3.47142 1.36463 1.99379
58 1 4.33984 1.27665 2.37563
59 1 4.64057 1.89557 1.71603
60 1 5.01656 2.25921 0.956392
61 1 5.20358 2.90162 0.346834
62 1 4.39834 3.25083 0.0873776
63 1 4.22686 2.55452 -0.575243
64 1 3.29236 2.7417 -0.725464
65 1 3.1887 3.6794 -0.532928
66 1 4.078 3.93511 -0.641105
67 1 4.5115 4.80657 -0.415091
68 1 5.07741 5.10529 0.259534
69 1 5.3254 5.93853 0.568126
70 1 5.79385 6.7287 0.522918
71 1 6.49131 6.42641 -0.0829542
72 1 5.86128 5.81504 -0.369461
73 1 6.2114 5.02237 -0.778551
74 1 6.12936 4.26384 -0.217818
75 1 6.61667 4.67994 0.464998
76 1 7.32016 4.04124 0.378334
77 1 8.23057 4.47923 0.345425
78 1 8.68713 5.38269 0.253838
79 1 9.2723 4.83457 0.757886
80 1 9.90049 5.05547 1.45025
81 1 10.5657 5.59279 1.09903
82 1 11.505 5.524 1.43362
83 1 11.5313 4.61839 1.20669
84 1 12.147 5.07969 0.630454
85 1 11.2732 5.23872 0.222864
86 1 11.0495 4.3661 -0.0535573
87 1 11.862 4.41748 -0.593206
88 1 12.8076 4.1749 -0.615311
89 1 13.0794 5.00542 -0.923456
90 1 13.5581 5.74058 -1.31766
91 1 14.4685 5.83681 -1.16373
92 1 15.1006 5.20749 -1.62372
93 1 15.8661 5.22123 -2.21796
94 1 16.5017 5.19601 -2.91204
95 1 16.9203 5.4832 -3.73273
96 1 17.5948 5.00348 -4.20371
97 1 18.4238 4.6428 -3.79458
98 1 18.9672 4.75595 -4.52469
99 1 18.6887 4.50653 -5.34957
100 1 19.608 4.70505 -5.57143
101 1 20.0728 4.41896 -6.33896
102 1 20.9464 4.21452 -6.52428
103 1 21.3105 4.01146 -5.64326
104 1 21.7628 3.1793 -5.57644
105 1 22.3611 2.53838 -5.3982
106 1 23.1856 2.34934 -4.96599
107 1 22.9884 1.73823 -4.23191
108 1 23.2105 0.912262 -3.86368
109 1 23.1832 -0.0162231 -3.48202
110 1 23.3104 -0.828574 -3.89392
111 1 23.1796 -1.59696 -4.36456
112 1 23.0396 -1.72729 -5.3395
113 1 22.936 -2.22854 -6.13758
114 1 23.2272 -1.73417 -6.81992
115 1 23.6778 -0.883684 -6.89187
116 1 23.6753 0.0665651 -6.64708
117 1 23 0.657988 -6.83184
118 1 23.3788 1.28282 -7.46586
119 1 23.6213 0.482418 -7.83364
120 1 22.8438 0.0238356 -8.24963
121 1 22.8161 0.622809 -8.98404
122 1 23.4204 0.616995 -9.74301
123 1 23.7789 0.62995 -10.6196
124 1 23.6444 1.60374 -10.7078
125 1 23.0084 2.27378 -10.7363
126 1 22.2392 2.45992 -10.1487
127 1 22.2196 2.21699 -9.26037
128 1 21.8123 1.46272 -8.81069
ITEM: TIMESTEP
90000
ITEM: NUMBER OF ATOMS
128
ITEM: BOX BOUNDS mm mm mm
-6.4000000000000000e+01 6.4000000000000000e+01
-6.4000000000000000e+01 6.4000000000000000e+01
-6.4000000000000000e+01 6.4000000000000000e+01
ITEM: ATOMS id type x y z
1 1 -11.6964 -3.11235 -2.25184
2 1 -12.4939 -3.04382 -1.68693
3 1 -12.1799 -3.30032 -0.862612
4 1 -11.3955 -3.60407 -1.25396
5 1 -10.7826 -4.33471 -1.15539
6 1 -10.2059 -5.06163 -1.22889
7 1 -9.38364 -4.96655 -0.715232
8 1 -8.54402 -5.36173 -0.95494
9 1 -8.45592 -5.7683 -1.7735
10 1 -7.89883 -5.47191 -2.51648
11 1 -7.34549 -5.98134 -1.89605
12 1 -7.42963 -5.18895 -1.35361
13 1 -7.15595 -4.80436 -0.488742
14 1 -6.94255 -4.06478 0.0245867
15 1 -7.11524 -3.4834 -0.741804
16 1 -7.95654 -3.09691 -0.55414
17 1 -8.54454 -2.82691 -1.26915
18 1 -9.36777 -3.19204 -1.06798
19 1 -9.36447 -2.93293 -0.147877
20 1 -9.55599 -2.37166 0.548611
21 1 -9.89183 -1.63143 1.04694
22 1 -9.16308 -1.04368 1.32522
23 1 -8.59366 -0.619719 0.732909
24 1 -7.9784 -1.21953 1.12877
25 1 -7.06416 -1.14012 1.35135
26 1 -6.68766 -1.92435 1.66134
27 1 -6.53618 -2.04802 0.77139
28 1 -5.92173 -2.03368 0.0553408
29 1 -5.76963 -2.33862 -0.878091
30 1 -4.95847 -2.79443 -1.01249
31 1 -4.65546 -2.39106 -1.8488
32 1 -4.52481 -1.56508 -1.46665
33 1 -4.1736 -0.901316 -2.11892
34 1 -4.39143 -1.0721 -3.02807
35 1 -4.57499 -0.978775 -3.95144
36 1 -4.40708 -0.117478 -4.15083
37 1 -4.50121 0.701442 -3.7735
38 1 -5.39452 0.606643 -3.59471
39 1 -5.42331 1.42545 -3.20114
40 1 -4.63519 1.88536 -2.86392
41 1 -3.92188 1.89764 -2.26194
42 1 -3.09529 2.07011 -2.0007
43 1 -2.42559 2.72859 -2.1095
44 1 -1.81833 2.09247 -1.8056
45 1 -1.63761 2.38608 -0.921985
46 1 -0.692862 2.56682 -0.844099
47 1 -0.497243 2.26349 0.00198995
48 1 -0.0650777 1.44275 -5.65525e-05
49 1 0.655321 0.945275 0.178788
50 1 1.45815 1.35697 0.521085
51 1 2.25314 0.906024 0.816752
52 1 3.15207 1.20441 1.04278
53 1 2.85037 2.05724 0.747519
54 1 2.55802 2.02351 -0.153788
55 1 3.56014 2.04131 -0.320953
56 1 4.30794 2.53362 -0.510999
57 1 5.19825 2.31865 -0.636164
58 1 5.87876 1.6792 -0.737075
59 1 5.69268 0.825623 -0.338226
60 1 6.23054 0.145465 -0.72001
61 1 7.0464 -0.136775 -0.224362
62 1 7.47834 -0.76234 -0.792843
63 1 7.40814 -1.66929 -1.17084
64 1 7.74901 -1.01717 -1.77093
65 1 7.90536 -0.143997 -1.95156
66 1 8.55282 -0.535627 -2.50653
67 1 8.74477 -0.203373 -3.35118
68 1 8.75694 0.672219 -3.17151
69 1 7.93899 1.08388 -3.44158
70 1 7.40285 1.20382 -4.17179
71 1 8.33692 1.2385 -4.52946
72 1 8.4583 2.10224 -5.07
73 1 9.23467 2.5618 -5.25428
74 1 9.54782 3.10042 -4.52742
75 1 9.84892 3.98519 -4.71224
76 1 9.98113 4.47819 -3.93627
77 1 10.4841 4.93762 -3.28322
78 1 11.1042 4.22444 -3.16008
79 1 11.9228 4.44578 -3.58685
80 1 12.169 4.56325 -4.5785
81 1 12.0328 4.65095 -5.52638
82 1 12.9844 4.45616 -5.53938
83 1 13.8796 4.53158 -5.3961
84 1 14.1196 5.42527 -5.50042
85 1 14.3806 6.09486 -4.81604
86 1 15.009 6.55558 -5.34593
87 1 15.6144 7.2613 -5.68774
88 1 16.0291 7.56658 -4.88001
89 1 16.2597 8.45815 -4.70489
90 1 16.8518 7.96936 -4.16684
91 1 17.642 8.00566 -4.69518
92 1 17.2541 7.15582 -4.76216
93 1 17.0483 6.32276 -5.158
94 1 17.8099 6.21137 -4.55655
95 1 18.0812 5.2597 -4.70229
96 1 18.9197 5.46 -4.28965
97 1 19.1894 5.61349 -3.39524
98 1 19.7672 4.85624 -3.72789
99 1 19.5756 4.21274 -4.35345
100 1 18.991 3.52779 -4.65436
101 1 19.3404 2.63989 -4.63743
102 1 18.6271 2.04604 -4.97729
103 1 19.468 1.78376 -5.24739
104 1 19.5023 1.92941 -6.10349
105 1 20.1105 2.31636 -6.68964
106 1 20.6801 2.58801 -6.00025
107 1 21.5498 2.99532 -5.86277
108 1 22.0078 3.77811 -6.13411
109 1 22.6835 4.25684 -5.69159
110 1 23.6184 4.33962 -5.60384
111 1 24.5451 4.4568 -5.43015
112 1 24.8557 4.0588 -4.61347
113 1 25.4119 3.96086 -3.85552
114 1 24.9931 3.64821 -3.13506
115 1 25.3577 4.31806 -2.5718
116 1 25.0742 4.58429 -1.6983
117 1 25.0346 5.52729 -1.82369
118 1 25.6094 6.13434 -2.26338
119 1 25.6325 7.03179 -2.09464
120 1 26.3134 7.06009 -2.77523
121 1 25.8919 7.76536 -3.15496
122 1 26.6094 8.20866 -2.7313
123 1 27.2717 8.48501 -3.35919
124 1 27.4062 8.49016 -4.25304
125 1 27.0899 7.89038 -4.87174
126 1 27.7691 8.36485 -5.25504
127 1 28.2866 7.56301 -5.38171
128 1 27.8924 6.75194 -5.23419
ITEM: TIMESTEP
100000
ITEM: NUMBER OF ATOMS
128
ITEM: BOX BOUNDS mm mm mm
-6.4000000000000000e+01 6.4000000000000000e+01
-6.4000000000000000e+01 6.4000000000000000e+01
-6.4000000000000000e+01 6.4000000000000000e+01
ITEM: ATOMS id type x y z
1 1 -9.38199 -4.92024 -0.676737
2 1 -10.2163 -5.01441 -1.16528
3 1 -10.5564 -4.53435 -0.402629
4 1 -11.1186 -4.54372 0.38335
5 1 -11.5334 -3.82372 -0.102778
6 1 -11.4976 -3.8113 -1.07635
7 1 -11.1438 -3.20131 -1.73024
8 1 -10.9759 -2.73997 -2.49465
9 1 -10.3271 -2.17703 -2.81816
10 1 -9.93121 -2.36784 -2.01759
11 1 -10.337 -1.8928 -1.35268
12 1 -10.7024 -1.38785 -0.659962
13 1 -10.214 -1.91451 -0.0288181
14 1 -9.62666 -1.07619 0.00845098
15 1 -9.10577 -0.90843 0.7741
16 1 -9.964 -0.650718 1.09798
17 1 -9.94074 -1.56074 1.32404