ITEM: TIMESTEP
2360000
ITEM: NUMBER OF ATOMS
128
ITEM: BOX BOUNDS mm mm mm
-6.4000000000000000e+01 6.4000000000000000e+01
-6.4000000000000000e+01 6.4000000000000000e+01
-6.4000000000000000e+01 6.4000000000000000e+01
ITEM: ATOMS id type x y z
1 1 -34.6626 5.46329 26.6992
2 1 -34.1386 6.21673 26.463
3 1 -33.5933 6.906 26.1495
4 1 -32.9376 7.51483 25.8582
5 1 -32.4147 8.15582 25.5339
6 1 -31.8621 8.7773 24.9933
7 1 -31.3677 9.13815 24.3015
8 1 -31.0919 9.49956 23.4936
9 1 -30.9926 9.8877 22.6401
10 1 -30.7658 10.3694 21.8727
11 1 -30.5298 10.8601 21.0877
12 1 -30.2893 11.4477 20.3964
13 1 -30.0454 12.1371 19.691
14 1 -29.8663 12.7044 18.9654
15 1 -29.6534 13.2961 18.2586
16 1 -29.3581 13.7955 17.5352
17 1 -28.9428 14.2826 16.8865
18 1 -28.5449 14.8423 16.2322
19 1 -27.9719 15.2122 15.549
20 1 -27.5455 15.5263 14.7957
21 1 -27.1586 15.8795 13.9967
22 1 -26.7467 16.0899 13.215
23 1 -26.157 16.5226 12.6637
24 1 -25.5971 17.0424 12.0785
25 1 -25.0266 17.4668 11.4393
26 1 -24.3614 17.9076 10.9291
27 1 -23.59 18.2076 10.4575
28 1 -22.8446 18.5245 9.99719
29 1 -22.2022 18.8814 9.40488
30 1 -21.6741 19.4282 8.84045
31 1 -21.0808 19.9383 8.39035
32 1 -20.5479 20.5726 8.03221
33 1 -20.0402 21.2706 7.7081
34 1 -19.5443 22.0025 7.33762
35 1 -19.2242 22.8152 6.90587
36 1 -18.8143 23.6097 6.53117
37 1 -18.4371 24.4245 6.12141
38 1 -18.1099 25.1606 5.6738
39 1 -17.7629 25.9636 5.2999
40 1 -17.3862 26.6691 4.76662
41 1 -16.9814 27.3545 4.29249
42 1 -16.6503 28.1282 3.93159
43 1 -16.4365 28.7903 3.30304
44 1 -16.0837 29.325 2.6367
45 1 -15.771 29.9733 2.09003
46 1 -15.4336 30.5824 1.45968
47 1 -15.0799 31.1443 0.776744
48 1 -14.6714 31.609 0.0908539
49 1 -14.2956 31.8137 -0.710431
50 1 -13.8603 32.0592 -1.52331
51 1 -13.5208 32.156 -2.33632
52 1 -13.1355 32.3143 -3.21374
53 1 -12.7332 32.4482 -4.09667
54 1 -12.302 32.5355 -4.88617
55 1 -11.6956 32.4236 -5.65191
56 1 -11.0952 32.2451 -6.38788
57 1 -10.3991 32.1365 -6.99385
58 1 -9.62025 32.018 -7.55387
59 1 -8.78256 31.8652 -8.01326
60 1 -7.9239 31.7237 -8.45395
61 1 -6.97462 31.6778 -8.63574
62 1 -6.1627 31.3825 -8.82333
63 1 -5.28522 30.938 -8.96991
64 1 -4.56822 30.3315 -9.23621
65 1 -3.91311 29.8063 -9.54247
66 1 -3.31365 29.1451 -9.82721
67 1 -2.68995 28.5496 -10.1172
68 1 -2.15578 27.8536 -10.4373
69 1 -1.68176 27.0975 -10.7665
70 1 -1.13383 26.2974 -10.7927
71 1 -0.584019 25.5776 -10.6759
72 1 -0.029309 24.7975 -10.5951
73 1 0.531297 24.056 -10.6236
74 1 1.17194 23.3467 -10.6405
75 1 1.79674 22.5912 -10.6084
76 1 2.40285 21.8955 -10.5914
77 1 2.80887 21.0847 -10.4207
78 1 3.19139 20.2701 -10.136
79 1 3.55421 19.4472 -9.86116
80 1 4.04302 18.7113 -9.56533
81 1 4.25846 17.8261 -9.34536
82 1 4.57808 16.9387 -9.15881
83 1 4.84069 16.093 -8.91209
84 1 5.02326 15.1472 -8.80245
85 1 5.19895 14.2489 -8.52313
86 1 5.38949 13.3745 -8.38504
87 1 5.64689 12.4529 -8.16668
88 1 5.69108 11.5634 -7.83232
89 1 5.59604 10.7214 -7.34469
90 1 5.44445 9.89084 -6.95514
91 1 5.36547 9.06524 -6.52054
92 1 5.42719 8.25325 -6.11551
93 1 5.44702 7.39867 -5.67412
94 1 5.41103 6.59877 -5.1539
95 1 5.33907 5.76853 -4.69076
96 1 5.33679 4.95492 -4.18954
97 1 5.37983 4.11465 -3.74885
98 1 5.51147 3.19829 -3.25304
99 1 5.54424 2.39252 -2.79893
100 1 5.45482 1.64239 -2.20581
101 1 5.40868 0.884759 -1.67114
102 1 5.33998 0.175757 -1.12467
103 1 5.29742 -0.492474 -0.486578
104 1 5.14724 -1.13614 0.14144
105 1 4.97441 -1.47658 1.00361
106 1 4.58011 -1.79895 1.75938
107 1 4.1762 -2.28358 2.5253
108 1 3.83218 -2.85756 3.16345
109 1 3.54472 -3.5767 3.58617
110 1 3.3333 -4.34512 4.05046
111 1 3.02733 -4.99883 4.60412
112 1 2.57894 -5.60325 5.19219
113 1 2.00248 -6.18829 5.69593
114 1 1.59462 -6.79122 6.3413
115 1 1.16937 -7.2743 7.0005
116 1 0.6598 -7.79924 7.58082
117 1 0.0675551 -8.36162 8.04363
118 1 -0.550996 -8.86234 8.50926
119 1 -1.32231 -9.43339 8.74293
120 1 -1.95476 -10.0609 8.97833
121 1 -2.70494 -10.5367 9.24812
122 1 -3.44885 -10.9462 9.59827
123 1 -4.21732 -11.3736 9.91895
124 1 -4.93283 -11.9367 10.1645
125 1 -5.63033 -12.516 10.5285
126 1 -6.29112 -13.1098 10.796
127 1 -6.87606 -13.8324 11.027
128 1 -7.48465 -14.515 11.14
ITEM: TIMESTEP
2370000
ITEM: NUMBER OF ATOMS
128
ITEM: BOX BOUNDS mm mm mm
-6.4000000000000000e+01 6.4000000000000000e+01
-6.4000000000000000e+01 6.4000000000000000e+01
-6.4000000000000000e+01 6.4000000000000000e+01
ITEM: ATOMS id type x y z
1 1 -30.8083 11.8718 31.2556
2 1 -30.5908 11.8258 30.3717
3 1 -30.4553 11.6281 29.451
4 1 -30.2255 11.4059 28.5829
5 1 -30.1151 11.0552 27.6802
6 1 -29.956 10.8933 26.7981
7 1 -29.6995 10.8508 25.915
8 1 -29.2765 10.9503 25.0581
9 1 -28.7886 11.0262 24.2205
10 1 -28.2798 11.2105 23.3758
11 1 -27.7982 11.5655 22.6266
12 1 -27.4033 11.9375 21.8417
13 1 -27.0561 12.3683 21.0755
14 1 -26.7532 12.7971 20.3089
15 1 -26.5629 13.3079 19.5193
16 1 -26.3805 13.7517 18.7312
17 1 -26.2518 14.2335 17.9362
18 1 -25.9719 14.8773 17.309
19 1 -25.7442 15.6343 16.832
20 1 -25.519 16.3174 16.1567
21 1 -25.2431 16.8374 15.4523
22 1 -24.9738 17.1129 14.597
23 1 -24.6123 17.4571 13.8241
24 1 -24.2195 17.8242 13.0167
25 1 -23.8508 18.1313 12.2509
26 1 -23.3945 18.3686 11.5011
27 1 -22.8404 18.7302 10.8235
28 1 -22.2832 18.9029 10.1207
29 1 -21.571 19.2507 9.61707
30 1 -20.8782 19.6601 8.99774
31 1 -20.1009 20.0565 8.51432
32 1 -19.336 20.592 8.26416
33 1 -18.7163 21.2514 8.13339
34 1 -18.035 21.9201 7.93926
35 1 -17.3177 22.5763 7.94972
36 1 -16.6324 23.1632 8.00783
37 1 -15.9134 23.7256 7.93395
38 1 -15.0623 24.1531 7.71277
39 1 -14.1945 24.5427 7.46571
40 1 -13.5039 25.0468 7.16011
41 1 -12.9227 25.5154 6.63197
42 1 -12.2512 25.9956 6.16148
43 1 -11.7105 26.5464 5.65296
44 1 -11.0584 26.967 5.19752
45 1 -10.5026 27.4041 4.59593
46 1 -10.1309 28.0578 4.04023
47 1 -9.73027 28.7243 3.50485
48 1 -9.41441 29.407 2.89276
49 1 -9.17675 29.9716 2.21861
50 1 -8.88333 30.3603 1.41237
51 1 -8.49726 30.817 0.700475
52 1 -7.98068 30.984 -0.0588915
53 1 -7.52868 31.1715 -0.84965
54 1 -7.0549 31.2369 -1.62901
55 1 -6.69508 31.1786 -2.48546
56 1 -6.44735 31.1381 -3.41308
57 1 -6.09003 31.0237 -4.24568
58 1 -5.82016 30.8397 -5.15301
59 1 -5.66704 30.4364 -5.99471
60 1 -5.39685 29.8996 -6.73672
61 1 -5.23562 29.3558 -7.53444
62 1 -4.98041 28.6731 -8.11366
63 1 -4.88907 27.8717 -8.61681
64 1 -4.74849 27.0582 -9.12295
65 1 -4.3336 26.3137 -9.49312
66 1 -3.82773 25.5692 -9.89954
67 1 -3.49172 24.7686 -10.2779
68 1 -3.11427 23.9816 -10.5651
69 1 -2.79754 23.1784 -10.8434
70 1 -2.5183 22.4499 -11.4196
71 1 -2.0715 21.8222 -11.9531
72 1 -1.51095 21.2274 -12.4329
73 1 -1.00512 20.5729 -12.9184
74 1 -0.745477 19.7812 -13.2966
75 1 -0.580039 18.9086 -13.753
76 1 -0.325734 18.0745 -14.1437
77 1 -0.0929107 17.2216 -14.441
78 1 0.157511 16.3394 -14.6151
79 1 0.511626 15.4648 -14.6401
80 1 0.893491 14.6443 -14.4668
81 1 1.17501 13.7918 -14.1373
82 1 1.48195 12.9367 -13.8278
83 1 2.02451 12.1534 -13.6235
84 1 2.44312 11.298 -13.4173
85 1 2.73458 10.4464 -13.1745
86 1 3.13408 9.65586 -12.8252
87 1 3.62798 8.83947 -12.4801
88 1 4.10237 8.12395 -12.0922
89 1 4.66136 7.49072 -11.6855
90 1 5.16436 6.83686 -11.1699
91 1 5.66955 6.21095 -10.6512
92 1 6.17551 5.4915 -10.1718
93 1 6.61726 4.81461 -9.74074
94 1 7.1257 4.1455 -9.28654
95 1 7.4969 3.36148 -8.87477
96 1 7.75654 2.59285 -8.36753
97 1 7.97003 1.90037 -7.74034
98 1 7.91757 1.17981 -7.10082
99 1 7.74386 0.706611 -6.27718
100 1 7.63994 0.346388 -5.46803
101 1 7.49527 0.0161762 -4.60227
102 1 7.28632 -0.395662 -3.74868
103 1 7.04149 -0.858454 -2.97304
104 1 6.71886 -1.29131 -2.17094
105 1 6.50318 -1.58074 -1.29335
106 1 6.17597 -1.92655 -0.437271
107 1 5.86496 -2.08158 0.428286
108 1 5.50022 -2.35449 1.22295
109 1 5.22043 -2.74172 2.07536
110 1 5.00399 -3.06668 2.97104
111 1 4.87294 -3.62277 3.73063
112 1 4.49672 -4.17776 4.39802
113 1 4.11681 -4.58862 5.22306
114 1 3.80459 -4.85258 6.1039
115 1 3.55568 -5.21691 7.01838
116 1 3.49243 -5.55509 7.88908
117 1 3.29423 -5.86504 8.77579
118 1 3.17334 -6.3719 9.5698
119 1 2.98976 -6.85506 10.4141
120 1 2.75403 -7.21262 11.2196
121 1 2.39296 -7.56834 12.0023
122 1 1.97461 -8.1091 12.7033
123 1 1.62049 -8.57241 13.3931
124 1 1.33446 -9.11424 14.1346
125 1 1.08007 -9.79515 14.7253
126 1 0.855597 -10.5115 15.298
127 1 0.785569 -11.3103 15.7717
128 1 0.798385 -12.1114 16.2558
ITEM: TIMESTEP
2380000
ITEM: NUMBER OF ATOMS
128
ITEM: BOX BOUNDS mm mm mm
-6.4000000000000000e+01 6.4000000000000000e+01
-6.4000000000000000e+01 6.4000000000000000e+01
-6.4000000000000000e+01 6.4000000000000000e+01
ITEM: ATOMS id type x y z
1 1 -28.2432 15.763 29.5697
2 1 -28.3774 15.429 28.6895
3 1 -28.5879 15.1197 27.8003
4 1 -28.5308 14.8273 26.9759
5 1 -28.5317 14.4924 26.0885
6 1 -28.4509 14.021 25.2741
7 1 -28.4913 13.5699 24.4591
8 1 -28.6673 13.309 23.6121
9 1 -28.6399 12.986 22.7331
10 1 -28.5077 12.8124 21.7671
11 1 -28.241 12.768 20.8606
12 1 -27.8745 12.7302 20.0095
13 1 -27.4641 12.8707 19.1935
14 1 -26.876 13.1107 18.4364
15 1 -26.3917 13.3061 17.5906
16 1 -25.8116 13.4853 16.8813
17 1 -25.364 13.7578 16.09
18 1 -24.9907 14.178 15.3144
19 1 -24.4859 14.5693 14.6199
20 1 -23.9267 14.8715 13.9317
21 1 -23.4553 15.2597 13.1835
22 1 -22.9472 15.6854 12.4834
23 1 -22.4627 16.1331 11.8325
24 1 -21.8458 16.5275 11.2013
25 1 -21.0672 16.9567 10.9192
26 1 -20.3229 17.4165 10.603
27 1 -19.5206 17.8347 10.3168
28 1 -18.8457 18.4317 10.072
29 1 -18.1628 19.0049 9.80182
30 1 -17.3856 19.5444 9.5424
31 1 -16.7225 20.0672 9.12468
32 1 -16.0256 20.5428 8.70431
33 1 -15.4426 21.1246 8.27249
34 1 -14.8204 21.6311 7.7964
35 1 -14.1504 22.0663 7.31574
36 1 -13.6118 22.575 6.73564
37 1 -13.098 23.0963 6.12125
38 1 -12.5512 23.4752 5.45195
39 1 -12.0691 24.0184 4.94258
40 1 -11.5945 24.6708 4.44552
41 1 -11.1272 25.3873 4.05983
42 1 -10.7374 26.1039 3.54192
43 1 -10.3463 26.7765 2.95103
44 1 -10.1539 27.5182 2.43126
45 1 -9.9819 28.1456 1.76283
46 1 -9.86375 28.5753 0.971514
47 1 -9.8496 28.9998 0.079678
48 1 -9.79149 29.395 -0.754368
49 1 -9.77385 29.7729 -1.604
50 1 -9.84071 29.9687 -2.54917
51 1 -9.92035 30.2123 -3.45381
52 1 -9.88959 30.564 -4.32296
53 1 -10.0865 30.7595 -5.18436
54 1 -10.2237 30.8268 -6.12147
55 1 -10.1519 30.8716 -7.062
56 1 -9.97715 30.6927 -7.95098
57 1 -9.65953 30.3249 -8.83401
58 1 -9.22358 29.9041 -9.65693
59 1 -8.92427 29.4195 -10.3537
60 1 -8.54597 28.8669 -11.0641
61 1 -8.20849 28.0231 -11.3648
62 1 -7.82294 27.2473 -11.6252
63 1 -7.28916 26.5097 -11.9384
64 1 -6.79538 25.7915 -12.357
65 1 -6.47901 25.1107 -12.9278
66 1 -6.11379 24.5241 -13.5319
67 1 -5.76913 24.0851 -14.2514
68 1 -5.46942 23.6921 -15.029
69 1 -4.99341 23.2303 -15.7073
70 1 -4.43764 22.6765 -16.2442
71 1 -4.06758 21.9409 -16.7129
72 1 -3.69233 21.1881 -17.1202
73 1 -3.13542 20.488 -17.5118
74 1 -2.73248 19.737 -17.813
75 1 -2.18219 18.9961 -17.9792
76 1 -1.57553 18.2658 -17.9918
77 1 -0.987989 17.5935 -17.9299
78 1 -0.486922 16.8399 -17.7614
79 1 -0.115319 16.0226 -17.5384
80 1 0.365748 15.2179 -17.3303
81 1 0.685646 14.3372 -17.0633
82 1 0.883215 13.4625 -16.6901
83 1 1.00168 12.5439 -16.3209
84 1 1.24179 11.6191 -16.0529
85 1 1.52394 10.8252 -15.7806
86 1 1.82939 10.0639 -15.2952
87 1 1.97869 9.39768 -14.6955
88 1 2.1598 8.75516 -14.0788
89 1 2.2497 8.0571 -13.4301
90 1 2.52922 7.452 -12.7922
91 1 2.9375 6.94549 -12.065
92 1 3.21026 6.39814 -11.3115
93 1 3.47073 5.81616 -10.5954
94 1 3.70354 5.17936 -9.90343
95 1 3.87749 4.63963 -9.1185
96 1 4.00462 4.10813 -8.34599
97 1 4.1631 3.41437 -7.69232
98 1 4.40362 2.77762 -7.12682
99 1 4.69677 2.10342 -6.51126
100 1 4.84292 1.4516 -5.86518
101 1 5.00067 0.957918 -5.10696
102 1 4.99484 0.243775 -4.49819
103 1 4.91421 -0.403677 -3.81116
104 1 4.92908 -1.0711 -3.15344
105 1 4.99309 -1.6683 -2.43436
106 1 5.11696 -2.26882 -1.76311
107 1 5.43206 -2.77485 -1.04282
108 1 5.64383 -3.35037 -0.372954
109 1 6.06077 -3.91103 0.331804
110 1 6.49388 -4.32287 1.12316
111 1 6.90617 -4.61304 1.93884
112 1 7.3622 -4.9712 2.691
113 1 7.84412 -5.31168 3.43924
114 1 8.27457 -5.64052 4.1324
115 1 8.73681 -5.91664 4.92676
116 1 8.97417 -6.19429 5.76641
117 1 9.27993 -6.25013 6.62305
118 1 9.62781 -6.30028 7.47755
119 1 9.92368 -6.32972 8.35935
120 1 10.2374 -6.20747 9.21939
121 1 10.355 -6.2305 10.1813
122 1 10.5106 -6.19999 11.1193
123 1 10.6203 -6.07633 12.035
124 1 10.8887 -5.89962 12.9278
125 1 11.0498 -5.67691 13.8289
126 1 11.1024 -5.30486 14.6627
127 1 11.3215 -4.80453 15.418
128 1 11.5226 -4.43635 16.2571
ITEM: TIMESTEP
2390000
ITEM: NUMBER OF ATOMS
128
ITEM: BOX BOUNDS mm mm mm
-6.4000000000000000e+01 6.4000000000000000e+01
-6.4000000000000000e+01 6.4000000000000000e+01
-6.4000000000000000e+01 6.4000000000000000e+01
ITEM: ATOMS id type x y z
1 1 -36.0924 11.9602 27.0276
2 1 -35.2798 11.7973 26.5386
3 1 -34.4624 11.7148 26.1041
4 1 -33.7133 12.0054 25.5904
5 1 -32.9473 12.4044 25.167
6 1 -32.1221 12.8406 24.963
7 1 -31.4631 13.3711 24.508
8 1 -30.7598 13.8464 24.0154
9 1 -30.0994 14.2573 23.4978
10 1 -29.5384 14.9027 23.0669
11 1 -28.9818 15.5213 22.5445
12 1 -28.3973 16.0258 22.0419
13 1 -27.8986 16.4625 21.3534
14 1 -27.4746 16.8667 20.6545
15 1 -27.0175 17.4062 19.9628
16 1 -26.4864 17.7361 19.2554
17 1 -25.7728 17.9945 18.7376
18 1 -24.9401 18.2943 18.3792
19 1 -24.12 18.5352 17.8667
20 1 -23.4881 18.5673 17.1817
21 1 -22.7704 18.627 16.5767
22 1 -22.0977 18.5903 15.929
23 1 -21.394 18.7106 15.3347
24 1 -20.8513 18.9359 14.5661
25 1 -20.4222 19.3665 13.8545
26 1 -20.0686 19.7239 13.0301
27 1 -19.6117 20.109 12.3232
28 1 -19.1153 20.4674 11.6158
29 1 -18.5457 20.8773 10.9117
30 1 -18.0255 21.343 10.3071
31 1 -17.2682 21.7399 9.8462
32 1 -16.5634 22.1938 9.41414
33 1 -15.8535 22.6383 9.04161
34 1 -15.1643 23.1182 8.68754
35 1 -14.4673 23.5512 8.39871
36 1 -13.6608 23.918 7.96438
37 1 -12.8906 24.3489 7.63644
38 1 -12.1083 24.6918 7.25859
39 1 -11.3517 25.0296 6.80649
40 1 -10.6809 25.4963 6.31066
41 1 -10.1321 25.8747 5.64939
42 1 -9.53912 26.1859 4.95814
43 1 -8.98762 26.5592 4.31199
44 1 -8.41756 27.0061 3.76805
45 1 -7.88166 27.5271 3.19523
46 1 -7.58725 28.1676 2.53627
47 1 -7.24769 28.7341 1.88774
48 1 -7.03094 29.3717 1.20507
49 1 -6.8307 29.8892 0.495342
50 1 -6.78881 30.3999 -0.278768
51 1 -6.85776 30.8736 -1.13316
52 1 -7.09723 31.1733 -1.94004
53 1 -7.2975 31.6242 -2.74545
54 1 -7.49745 32.0469 -3.59072
55 1 -7.78003 32.1573 -4.44691
56 1 -7.86799 32.217 -5.39576
57 1 -7.61199 32.1741 -6.26229
58 1 -7.25664 31.9776 -7.07067
59 1 -6.88196 31.6335 -7.8583
60 1 -6.56702 31.0923 -8.57085
61 1 -6.29769 30.4899 -9.30218
62 1 -6.13182 29.9236 -10.0044
63 1 -5.95309 29.2393 -10.5889
64 1 -5.51975 28.3799 -10.9961
65 1 -5.14558 27.5909 -11.2783
66 1 -4.67618 26.8986 -11.6961
67 1 -4.22395 26.1518 -12.0974
68 1 -3.72001 25.4424 -12.5277
69 1 -3.3252 24.6964 -12.8431
70 1 -2.86308 23.8618 -13.0354
71 1 -2.34825 23.1707 -13.4049
72 1 -1.89842 22.4484 -13.6939
73 1 -1.56568 21.594 -14.0629
74 1 -1.40374 20.7784 -14.4615
75 1 -1.19653 20.0002 -14.84
76 1 -1.1616 19.1272 -15.2727
77 1 -1.13036 18.1931 -15.6032
78 1 -1.03056 17.3041 -15.9185
79 1 -1.17758 16.4222 -16.0616
80 1 -1.32271 15.466 -15.9534
81 1 -1.50972 14.5189 -15.7394
82 1 -1.59347 13.5582 -15.5887
83 1 -1.65045 12.6529 -15.3348
84 1 -1.63319 11.7782 -15.0506
85 1 -1.65257 10.8418 -14.811
86 1 -1.73081 9.98509 -14.471
87 1 -1.70941 9.1585 -14.0375
88 1 -1.58582 8.2887 -13.6556
89 1 -1.49998 7.46027 -13.2096
90 1 -1.29691 6.57822 -13.0148
91 1 -0.874293 5.8039 -12.8318
92 1 -0.32179 5.0825 -12.6117
93 1 0.296235 4.44646 -12.3413
94 1 0.756596 3.8028 -11.7363
95 1 1.21553 3.37484 -11.0644
96 1 1.84114 2.82409 -10.5636
97 1 2.20496 2.24354 -10.0147
98 1 2.48449 1.62582 -9.35053
99 1 2.76086 1.0655 -8.72957
100 1 3.14081 0.449482 -8.12248
101 1 3.5663 -0.081417 -7.41847
102 1 3.95175 -0.723523 -6.76566
103 1 4.24428 -1.46257 -6.31746
104 1 4.23344 -2.25949 -5.91383
105 1 4.30586 -3.0682 -5.47259
106 1 4.41047 -3.83035 -4.86161
107 1 4.53126 -4.43683 -4.1462
108 1 4.67589 -5.00674 -3.39523
109 1 4.81681 -5.60329 -2.63345
110 1 4.96427 -6.04238 -1.87055
111 1 5.10214 -6.67834 -1.16021
112 1 5.26086 -7.23341 -0.448506
113 1 5.40441 -7.66806 0.371618
114 1 5.54387 -8.01336 1.24091
115 1 5.86315 -8.37486 2.04142
116 1 6.37875 -8.68916 2.78276
117 1 7.00935 -8.87423 3.43277
118 1 7.6014 -9.20147 4.11709
119 1 8.1589 -9.51693 4.7596
120 1 8.65264 -9.92318 5.45367
121 1 9.1128 -10.311 6.19716
122 1 9.56882 -10.5455 7.01758
123 1 10.0349 -10.8318 7.81866
124 1 10.2667 -11.0618 8.71654
125 1 10.3987 -11.3433 9.68102
126 1 10.5731 -11.5733 10.5879
127 1 10.8007 -11.903 11.4992
128 1 11.1224 -11.9897 12.3812
ITEM: TIMESTEP
2400000
ITEM: NUMBER OF ATOMS
128
ITEM: BOX BOUNDS mm mm mm
-6.4000000000000000e+01 6.4000000000000000e+01
-6.4000000000000000e+01 6.4000000000000000e+01
-6.4000000000000000e+01 6.4000000000000000e+01
ITEM: ATOMS id type x y z
1 1 -35.2361 16.0394 28.394
2 1 -34.674 16.2374 27.6898
3 1 -34.0597 16.2878 27.047
4 1 -33.5356 16.2442 26.2659
5 1 -33.1319 16.1254 25.4407
6 1 -32.5496 16.0304 24.6835
7 1 -32.0125 16.1049 23.8953
8 1 -31.5703 16.1712 23.116
9 1 -31.0951 16.0863 22.2937
10 1 -30.5909 16.074 21.5164
11 1 -29.9348 16.2293 20.8157
12 1 -29.2562 16.2722 20.1806
13 1 -28.5941 16.4556 19.5401
14 1 -27.8424 16.6879 19.0073
15 1 -27.1562 17.0108 18.4862
16 1 -26.3003 17.158 18.0776
17 1 -25.5299 17.3469 17.5649
18 1 -24.7439 17.4574 17.1503
19 1 -23.8592 17.5209 16.8322
20 1 -22.9476 17.7228 16.5975
21 1 -22.1337 17.8556 16.1881
22 1 -21.4239 17.9534 15.5725
23 1 -20.6289 18.0388 15.081
24 1 -19.9109 18.227 14.5511
25 1 -19.3344 18.7001 14.003
26 1 -18.7475 19.202 13.4534
27 1 -18.1896 19.8481 13.0173
28 1 -17.9222 20.4726 12.4299
29 1 -17.5568 21.2772 11.982
30 1 -17.3797 21.9948 11.4338
31 1 -16.988 22.6881 10.9896
32 1 -16.6934 23.5152 10.678
33 1 -16.3325 24.2877 10.2954
34 1 -15.8879 25.0097 9.96
35 1 -15.3438 25.7066 9.63867
36 1 -14.8288 26.4508 9.32612
37 1 -14.2149 27.0472 8.99113
38 1 -13.56 27.5776 8.60038
39 1 -12.9352 28.0077 8.02807
40 1 -12.3898 28.5211 7.43677
41 1 -11.8147 29.1558 6.96083
42 1 -11.5743 29.9103 6.43951
43 1 -11.3225 30.5795 5.82278
44 1 -11.041 31.1109 5.14336
45 1 -10.8571 31.6953 4.42125
46 1 -10.6133 32.1205 3.61114
47 1 -10.3945 32.3889 2.74522
48 1 -10.2351 32.6361 1.86171
49 1 -9.85717 32.7527 1.00498
50 1 -9.41037 33.0618 0.234842
51 1 -8.98397 33.4012 -0.567747
52 1 -8.48158 33.6805 -1.35793
53 1 -8.03552 34.0789 -2.0299
54 1 -7.42924 34.3354 -2.7305
55 1 -6.77444 34.686 -3.35964
56 1 -6.21492 35.1064 -3.94693
57 1 -5.62318 35.3014 -4.61561
58 1 -4.84609 35.2973 -5.21405
59 1 -4.14805 35.3293 -5.83446
60 1 -3.47845 35.2302 -6.45636
61 1 -2.73511 35.0612 -7.04152
62 1 -2.09429 34.6539 -7.68505
63 1 -1.56634 34.1158 -8.21232
64 1 -1.20255 33.4696 -8.73674
65 1 -1.0919 32.8045 -9.33941
66 1 -0.986065 32.0273 -9.89855
67 1 -0.898695 31.2865 -10.5147
68 1 -0.923489 30.6326 -11.1421
69 1 -1.012 29.9263 -11.724
70 1 -1.07461 29.1782 -12.2114
71 1 -1.15155 28.4316 -12.7777
72 1 -1.25516 27.6073 -13.2648
73 1 -1.36164 26.7308 -13.5789
74 1 -1.54183 25.7954 -13.6403
75 1 -1.79864 24.8881 -13.5789
76 1 -1.82767 23.9613 -13.6432
77 1 -1.92248 23.0554 -13.6986
78 1 -1.9162 22.1369 -13.8412
79 1 -1.67199 21.2793 -14.1459
80 1 -1.15446 20.485 -14.4401
81 1 -0.904627 19.6435 -14.7121
82 1 -0.561631 18.848 -15.0449
83 1 -0.240375 18.0525 -15.4403
84 1 -0.00526781 17.1537 -15.6277
85 1 0.130192 16.219 -15.7107
86 1 0.451987 15.2918 -15.6294
87 1 0.822517 14.3812 -15.5664
88 1 1.08953 13.4887 -15.4649
89 1 1.35631 12.5863 -15.3186
90 1 1.67152 11.7797 -14.8684
91 1 1.8085 10.926 -14.4239
92 1 2.08796 10.1427 -14.0473
93 1 2.49862 9.38003 -13.6265
94 1 2.78906 8.5066 -13.3505
95 1 2.89554 7.58521 -13.081
96 1 3.03338 6.81813 -12.5184
97 1 2.97478 6.12582 -11.965
98 1 3.07242 5.3402 -11.4205
99 1 3.21607 4.6369 -10.8381
100 1 3.48806 3.95396 -10.168
101 1 3.52592 3.34548 -9.45181
102 1 3.49765 2.70151 -8.73549
103 1 3.39109 2.37388 -7.83698
104 1 3.45618 2.00208 -6.87715
105 1 3.64687 1.69588 -6.01647
106 1 3.77908 1.27544 -5.17289
107 1 3.83991 0.789502 -4.31887
108 1 3.66405 0.157015 -3.63941
109 1 3.64932 -0.426767 -2.8822
110 1 3.7645 -1.06945 -2.16075
111 1 3.59538 -1.60263 -1.39016
112 1 3.52821 -2.25415 -0.761949
113 1 3.28574 -3.0356 -0.243183
114 1 3.19525 -3.68374 0.442411
115 1 3.22017 -4.2643 1.19344
116 1 3.21498 -4.81594 1.99719
117 1 3.12733 -5.38576 2.76542
118 1 3.05314 -5.84714 3.57299
119 1 2.99576 -6.41431 4.3482
120 1 2.93306 -7.11333 4.9708
121 1 2.89509 -7.81883 5.53919
122 1 2.92825 -8.56601 6.11405
123 1 3.1404 -9.2194 6.75235
124 1 3.35274 -9.90682 7.54904
125 1 3.48949 -10.5586 8.1978
126 1 3.75233 -11.2114 8.87661
127 1 3.86693 -11.8724 9.58374
128 1 3.88056 -12.673 10.1434
ITEM: TIMESTEP
2410000
ITEM: NUMBER OF ATOMS
128
ITEM: BOX BOUNDS mm mm mm
-6.4000000000000000e+01 6.4000000000000000e+01
-6.4000000000000000e+01 6.4000000000000000e+01
-6.4000000000000000e+01 6.4000000000000000e+01
ITEM: ATOMS id type x y z
1 1 -36.5077 14.0831 25.6353
2 1 -36.1489 14.5505 24.9424
3 1 -35.6677 14.9245 24.2531
4 1 -35.2551 15.5119 23.5412
5 1 -34.6469 16.0186 23.0044
6 1 -34.0742 16.4834 22.4216
7 1 -33.4002 17.0122 21.9708
8 1 -32.6881 17.5431 21.6635
9 1 -32.0517 17.9739 21.1459
10 1 -31.3742 18.3075 20.5937
11 1 -30.8169 18.6822 19.899
12 1 -30.2495 19.0419 19.2102
13 1 -29.6366 19.5221 18.6865
14 1 -29.0106 19.9785 18.0507
15 1 -28.4932 20.5332 17.5308
16 1 -27.8877 21.1245 17.0392
17 1 -27.202 21.6542 16.6447
18 1 -26.6041 22.3197 16.3615
19 1 -25.9996 22.9935 15.9955
20 1 -25.3499 23.6077 15.5728
21 1 -24.761 24.1595 15.0268
22 1 -24.3499 24.8567 14.5448
23 1 -23.9774 25.5376 14.0562
24 1 -23.5108 26.1652 13.5099
25 1 -22.7847 26.4846 13.0317
26 1 -21.9593 26.7004 12.526
27 1 -21.2223 26.8828 11.9615
28 1 -20.544 26.9413 11.402
29 1 -19.8121 26.9718 10.8376
30 1 -19.1353 27.0955 10.2374
31 1 -18.5577 27.3798 9.54216
32 1 -18.0304 27.7269 8.77549
33 1 -17.515 28.0955 8.08937
34 1 -16.9871 28.4535 7.39295
35 1 -16.5562 28.9143 6.76885
36 1 -15.9251 29.3115 6.15409
37 1 -15.2948 29.7149 5.59047
38 1 -14.6711 30.1905 5.069
39 1 -13.9766 30.5707 4.55235
40 1 -13.2807 31.0442 4.13356
41 1 -12.516 31.46 3.8004
42 1 -11.8313 31.9847 3.45287
43 1 -11.0447 32.5587 3.37097
44 1 -10.3164 33.1149 3.26541
45 1 -9.59088 33.6182 3.00562
46 1 -8.82335 34.1394 2.6723
47 1 -8.31916 34.7648 2.30261
48 1 -7.77037 35.3653 1.80485
49 1 -7.23059 35.9756 1.26374
50 1 -6.67907 36.3929 0.660996
51 1 -5.88234 36.8108 0.183323
52 1 -5.20139 37.1368 -0.438465
53 1 -4.6155 37.4067 -1.08354
54 1 -3.84654 37.6128 -1.70189
55 1 -3.17721 37.6846 -2.319
56 1 -2.4824 37.5722 -2.97528
57 1 -1.93709 37.3963 -3.70996
58 1 -1.51559 36.8898 -4.42361
59 1 -1.16476 36.4803 -5.20034
60 1 -0.942187 36.1749 -6.02865
61 1 -0.763488 35.7724 -6.81632
62 1 -0.849058 35.3142 -7.64462
63 1 -0.93511 34.8067 -8.46606
64 1 -1.18526 34.4441 -9.2723
65 1 -1.3392 33.7872 -9.99063
66 1 -1.48369 32.9551 -10.3128
67 1 -1.71863 32.101 -10.67
68 1 -1.88825 31.2605 -11.0026
69 1 -2.02553 30.3406 -11.2878
70 1 -2.23677 29.4184 -11.612
71 1 -2.50076 28.5484 -11.7772
72 1 -2.72829 27.6667 -11.8946
73 1 -2.97135 26.7241 -11.87
74 1 -3.36623 25.8896 -11.8379
75 1 -3.60427 25.0061 -12.105
76 1 -3.51269 24.0921 -12.0957
77 1 -3.53943 23.0545 -12.0759
78 1 -3.78111 22.13 -12.157
79 1 -4.01645 21.2648 -12.2356
80 1 -4.14597 20.3439 -12.4178
81 1 -4.30913 19.3927 -12.4376
82 1 -4.36096 18.4708 -12.4834
83 1 -4.27142 17.555 -12.4918
84 1 -4.02214 16.6873 -12.5251
85 1 -3.69976 15.7766 -12.7368
86 1 -3.46097 14.8717 -12.8646
87 1 -3.11331 14.0555 -13.1594
88 1 -2.75613 13.2282 -13.4316
89 1 -2.47379 12.3782 -13.6581
90 1 -2.15143 11.5037 -13.7807
91 1 -1.70427 10.6855 -13.8837
92 1 -1.15341 9.88174 -13.8333
93 1 -0.557007 9.14097 -13.7308
94 1 0.001411 8.43017 -13.5029
95 1 0.484926 7.69659 -13.1855
96 1 1.02333 7.02652 -12.7294
97 1 1.34413 6.30077 -12.205
98 1 1.53388 5.49314 -11.6271
99 1 1.70602 4.71136 -11.0915
100 1 2.1098 4.00156 -10.6319
101 1 2.57208 3.42032 -10.0947
102 1 3.10285 2.95645 -9.45511
103 1 3.61616 2.62107 -8.75173
104 1 4.08568 2.2998 -7.99083
105 1 4.50884 1.85014 -7.2087
106 1 4.60397 1.28183 -6.47594
107 1 4.51739 0.730895 -5.69262
108 1 4.37822 0.229731 -4.96983
109 1 4.12734 -0.306742 -4.26509
110 1 3.95748 -0.616945 -3.40109
111 1 3.64377 -0.971299 -2.57887
112 1 3.20791 -1.3655 -1.82401
113 1 2.8299 -1.89181 -1.00701
114 1 2.41683 -2.32015 -0.221572
115 1 1.95031 -2.66121 0.535218
116 1 1.46311 -2.90842 1.36602
117 1 0.968521 -3.21423 2.0532
118 1 0.499503 -3.52771 2.84551
119 1 -0.0528176 -3.91175 3.47895
120 1 -0.690661 -4.31842 4.04243
121 1 -1.24925 -4.64017 4.69369
122 1 -1.63799 -5.14867 5.46775
123 1 -2.08742 -5.54099 6.26399
124 1 -2.31142 -5.93622 7.09126
125 1 -2.63682 -6.4961 7.71829
126 1 -2.76937 -6.98484 8.46612
127 1 -2.85546 -7.46678 9.24312
128 1 -2.94854 -8.09173 9.93736
ITEM: TIMESTEP
2420000
ITEM: NUMBER OF ATOMS
128
ITEM: BOX BOUNDS mm mm mm
-6.4000000000000000e+01 6.4000000000000000e+01
-6.4000000000000000e+01 6.4000000000000000e+01
-6.4000000000000000e+01 6.4000000000000000e+01
ITEM: ATOMS id type x y z
1 1 -36.6019 16.3833 22.9093
2 1 -35.6733 16.3098 22.8049
3 1 -34.8022 16.5037 22.5841
4 1 -33.8936 16.6885 22.3753
5 1 -32.9753 16.9267 22.2851
6 1 -32.0718 17.0227 22.0794
7 1 -31.1216 17.0961 21.8617
8 1 -30.2762 17.3998 21.4338
9 1 -29.6112 17.6819 20.8134
10 1 -28.9521 18.0677 20.2243
11 1 -28.2657 18.5048 19.7839
12 1 -27.5799 18.8341 19.2558
13 1 -26.829 19.3575 18.8736
14 1 -26.1076 19.7309 18.3978
15 1 -25.6244 20.2611 17.7235
16 1 -25.1419 20.8629 17.2474
17 1 -24.656 21.4714 16.7344
18 1 -24.1578 22.1504 16.1864
19 1 -23.7192 22.7731 15.6353
20 1 -23.1961 23.4771 15.2415
21 1 -22.579 24.1416 14.8816
22 1 -21.9077 24.8224 14.6768
23 1 -21.116 25.2651 14.3962
24 1 -20.5073 25.9497 14.1038
25 1 -19.9236 26.5579 13.7688
26 1 -19.2567 27.0804 13.4372
27 1 -18.6125 27.4586 12.8717
28 1 -17.9529 27.9287 12.3909
29 1 -17.2439 28.5017 12.14
30 1 -16.4596 28.8246 11.898
31 1 -15.6039 29.1991 11.6003
32 1 -14.9203 29.7586 11.2061
33 1 -14.3244 30.4033 10.7919
34 1 -13.8042 30.9097 10.2104
35 1 -13.2183 31.2473 9.54839
36 1 -12.6948 31.7378 8.97278
37 1 -12.1281 32.248 8.35942
38 1 -11.5974 32.6803 7.66898
39 1 -11.085 33.1961 7.02387
40 1 -10.6449 33.6503 6.37515
41 1 -10.2386 34.1812 5.71233
42 1 -10.0122 34.7852 5.09806
43 1 -9.66249 35.2597 4.37908
44 1 -9.25532 35.8349 3.77965
45 1 -8.84079 36.2953 3.04337
46 1 -8.57053 36.6617 2.24718
47 1 -8.48542 37.019 1.4133
48 1 -8.17719 37.3958 0.572621
49 1 -7.82662 37.6562 -0.315907
50 1 -7.50011 37.8964 -1.16022
51 1 -7.23493 37.9048 -2.09584
52 1 -6.82479 37.9548 -2.90336
53 1 -6.42647 37.9469 -3.77017
54 1 -5.74927 37.8555 -4.4064
55 1 -4.93221 37.8148 -4.90597
56 1 -4.1892 37.6193 -5.47933
57 1 -3.43484 37.4226 -6.01396
58 1 -2.87396 37.1415 -6.71501
59 1 -2.41557 36.7818 -7.46645
60 1 -2.19288 36.4309 -8.3484
61 1 -1.92267 35.9825 -9.09035
62 1 -1.59486 35.4639 -9.83991
63 1 -1.35399 35.025 -10.6435
64 1 -1.04521 34.6549 -11.423
65 1 -0.923534 34.159 -12.1681
66 1 -0.865579 33.4456 -12.7609
67 1 -0.810546 32.7186 -13.3592
68 1 -0.734576 31.9807 -13.9266
69 1 -0.792568 31.1925 -14.4346
70 1 -0.801457 30.3871 -14.9028
71 1 -0.742426 29.5638 -15.3273
72 1 -0.770844 28.7714 -15.8434
73 1 -0.759941 27.8963 -16.1701
74 1 -0.727493 27.0114 -16.4666
75 1 -0.532168 26.0969 -16.6557
76 1 -0.326331 25.182 -16.8109
77 1 0.0165242 24.2549 -16.8544
78 1 0.319438 23.354 -16.8862
79 1 0.695781 22.5184 -17.0393
80 1 1.02233 21.5829 -17.2045
81 1 1.31248 20.6549 -17.2452
82 1 1.53135 19.7624 -17.3038
83 1 1.48187 18.8472 -17.2516
84 1 1.5629 17.8453 -16.9654
85 1 1.85141 17.0655 -16.5635
86 1 2.12155 16.3344 -16.092
87 1 2.28687 15.5183 -15.6625
88 1 2.50873 14.7473 -15.1975
89 1 2.78486 13.9995 -14.8204
90 1 2.96541 13.1931 -14.3505
91 1 3.02676 12.4997 -13.7421
92 1 3.09515 11.6868 -13.2972
93 1 3.23815 10.8319 -12.8735
94 1 3.27495 9.94923 -12.5986
95 1 3.35361 9.06996 -12.2335
96 1 3.56811 8.21293 -11.9764
97 1 3.78579 7.25564 -11.7437
98 1 3.97306 6.37552 -11.3969
99 1 4.26227 5.5213 -11.1157
100 1 4.46482 4.57629 -10.8962
101 1 4.60653 3.7155 -10.5186
102 1 4.49911 2.87201 -10.1074
103 1 4.34481 1.98849 -9.80875
104 1 4.07535 1.19036 -9.38931
105 1 3.66487 0.403889 -9.02739
106 1 3.06018 -0.331796 -8.81057
107 1 2.30785 -0.905732 -8.58549
108 1 1.77529 -1.56292 -8.22133
109 1 1.22333 -2.2166 -7.83473
110 1 0.667008 -2.78798 -7.29176
111 1 0.151796 -3.39875 -6.73953
112 1 -0.294649 -3.98656 -6.08441
113 1 -0.850427 -4.21777 -5.32629
114 1 -1.32562 -4.59424 -4.63718
115 1 -1.77051 -4.70697 -3.78742
116 1 -1.99191 -4.68969 -2.83847
117 1 -2.29167 -4.58031 -1.95561
118 1 -2.65491 -4.65524 -1.09967
119 1 -3.06506 -4.75408 -0.219804
120 1 -3.35241 -5.12315 0.596674
121 1 -3.73458 -5.29354 1.43821
122 1 -4.22449 -5.25965 2.24296
123 1 -4.56586 -5.18432 3.10855
124 1 -4.98701 -5.19864 3.93396
125 1 -5.39459 -5.02996 4.77142
126 1 -5.71719 -4.92061 5.73544
127 1 -5.90261 -4.78471 6.66904
128 1 -6.12971 -4.67843 7.57603
ITEM: TIMESTEP
2430000
ITEM: NUMBER OF ATOMS
128
ITEM: BOX BOUNDS mm mm mm
-6.4000000000000000e+01 6.4000000000000000e+01
-6.4000000000000000e+01 6.4000000000000000e+01
-6.4000000000000000e+01 6.4000000000000000e+01
ITEM: ATOMS id type x y z
1 1 -34.3462 19.8114 27.5434
2 1 -33.6831 20.0373 26.9765
3 1 -33.0332 20.4737 26.4373
4 1 -32.5002 20.9301 25.7425
5 1 -31.8264 21.1783 25.0996
6 1 -31.1347 21.324 24.5452
7 1 -30.4334 21.5507 23.9931
8 1 -29.7378 21.8112 23.4754
9 1 -29.0345 22.0052 22.9446
10 1 -28.2969 22.233 22.4659
11 1 -27.4724 22.3983 22.0276
12 1 -26.7152 22.7831 21.5438
13 1 -26.0036 23.276 21.1437
14 1 -25.2639 23.7659 20.74
15 1 -24.6295 24.196 20.1574
16 1 -23.9912 24.5961 19.6098
17 1 -23.3544 24.897 18.9933
18 1 -22.744 25.2914 18.4292
19 1 -22.0601 25.628 17.8735
20 1 -21.3796 26.0024 17.2981
21 1 -20.6702 26.4088 16.8381
22 1 -19.8178 26.6239 16.503
23 1 -18.9253 26.7821 16.0643
24 1 -18.168 27.0342 15.6177
25 1 -17.3307 27.2322 15.2662
26 1 -16.5507 27.5906 14.8917
27 1 -15.8439 27.9275 14.3889
28 1 -15.1092 28.3696 13.9805
29 1 -14.4414 28.753 13.4121