ITEM: TIMESTEP
540000
ITEM: NUMBER OF ATOMS
128
ITEM: BOX BOUNDS mm mm mm
-6.4000000000000000e+01 6.4000000000000000e+01
-6.4000000000000000e+01 6.4000000000000000e+01
-6.4000000000000000e+01 6.4000000000000000e+01
ITEM: ATOMS id type x y z
1 1 -2.89124 6.72354 5.03917
2 1 -3.7462 6.94182 4.77446
3 1 -4.22694 6.46773 4.10574
4 1 -4.38925 5.83818 3.44207
5 1 -5.36826 5.85629 3.3168
6 1 -6.11472 5.31922 3.65049
7 1 -5.81201 4.78522 2.97586
8 1 -5.95487 4.17881 2.24841
9 1 -6.02988 3.56151 1.59433
10 1 -6.65002 3.1482 2.12924
11 1 -7.40381 3.47651 2.57864
12 1 -7.16608 3.23081 3.45895
13 1 -6.72104 2.78379 4.13988
14 1 -5.97221 2.81991 3.52808
15 1 -5.14222 2.5483 3.15065
16 1 -4.21338 2.82185 3.20938
17 1 -3.50234 2.22281 3.42898
18 1 -2.55935 2.38277 3.13039
19 1 -1.80726 2.09262 2.648
20 1 -2.11457 2.33308 1.84632
21 1 -2.65624 1.56536 1.73268
22 1 -2.71195 0.659721 1.56793
23 1 -2.88217 -0.0450304 0.928431
24 1 -3.48328 0.500001 0.323749
25 1 -3.44618 1.39748 -0.144351
26 1 -2.87144 2.04135 -0.503856
27 1 -3.48542 2.71127 -0.671351
28 1 -3.473 3.56887 -0.294068
29 1 -2.59628 3.24895 -0.329863
30 1 -1.86006 2.94175 -0.848085
31 1 -1.30518 3.6485 -0.540582
32 1 -0.60431 4.1943 -0.955979
33 1 -0.358194 4.24693 -0.0360477
34 1 0.410375 4.02388 0.569924
35 1 0.332855 3.30683 1.09727
36 1 1.23074 3.2755 1.37233
37 1 1.73721 2.44782 1.14936
38 1 1.33515 1.66082 0.941916
39 1 1.25691 1.74085 0.0425851
40 1 1.36987 2.3459 -0.697466
41 1 2.06559 1.73953 -0.932729
42 1 1.69457 0.898686 -1.06407
43 1 1.00153 0.202181 -1.34454
44 1 1.24013 0.225988 -2.20388
45 1 1.28396 -0.700488 -1.96251
46 1 0.614199 -1.33573 -1.94886
47 1 0.817915 -2.20059 -1.57481
48 1 1.06066 -2.9337 -2.10428
49 1 0.376632 -3.58549 -2.14332
50 1 -0.45637 -3.17062 -2.11523
51 1 -1.06587 -2.51321 -2.1267
52 1 -1.43987 -3.23515 -2.56293
53 1 -2.33781 -3.24751 -2.92122
54 1 -2.83228 -2.64587 -3.40215
55 1 -2.49147 -1.82996 -3.62326
56 1 -2.22634 -0.932642 -3.44747
57 1 -1.51679 -0.580831 -2.92791
58 1 -0.602145 -0.673384 -3.06874
59 1 -0.898292 -0.494943 -3.97322
60 1 0.0168256 -0.633434 -4.04503
61 1 1.03754 -0.543475 -4.07018
62 1 1.00182 -0.536662 -3.09667
63 1 0.632602 -1.39714 -3.22961
64 1 1.03062 -1.64594 -4.06195
65 1 1.7928 -1.2119 -3.72392
66 1 1.96873 -2.10689 -3.67498
67 1 2.71869 -2.18099 -3.10118
68 1 3.5904 -1.84367 -3.07026
69 1 3.64731 -1.30567 -2.2882
70 1 4.23344 -0.612048 -2.02083
71 1 4.00612 -0.628062 -1.11265
72 1 3.9239 0.267663 -0.797167
73 1 4.11789 1.19254 -1.01178
74 1 4.94746 1.67965 -1.00513
75 1 4.88072 1.83422 -0.0772301
76 1 5.3579 2.07343 0.723064
77 1 5.7794 1.46069 1.33341
78 1 6.35362 1.30821 2.09278
79 1 6.15778 2.15836 2.45272
80 1 5.43069 2.75024 2.31215
81 1 5.40046 3.625 2.70579
82 1 4.49152 3.8334 2.59275
83 1 3.90361 3.52901 1.90108
84 1 3.47437 2.72338 1.6729
85 1 2.92222 3.42815 1.52172
86 1 3.30947 4.03915 0.963668
87 1 3.13946 4.85841 0.396498
88 1 3.28389 5.03842 -0.560384
89 1 3.30606 5.96669 -0.483258
90 1 3.66388 6.81115 -0.469116
91 1 2.77829 6.77225 -0.0994317
92 1 2.01861 7.38373 -0.0753696
93 1 2.13385 8.07633 -0.7055
94 1 3.0136 8.28411 -0.468568
95 1 3.74911 8.89808 -0.149505
96 1 4.59111 9.11085 0.155283
97 1 4.76882 9.81938 -0.472772
98 1 4.97885 10.705 -0.756655
99 1 4.55827 11.1008 0.0165543
100 1 4.77467 10.9632 0.901179
101 1 4.52224 10.4528 1.63511
102 1 4.34262 11.3823 2.01026
103 1 4.98852 12.076 1.93488
104 1 5.66245 12.3558 1.30363
105 1 5.37506 13.0754 0.767659
106 1 5.92449 13.4376 0.116481
107 1 5.78516 14.4201 0.19174
108 1 6.74107 14.3839 0.418836
109 1 7.18704 14.6708 1.20293
110 1 6.68268 15.0765 1.89879
111 1 6.5013 15.9828 2.15279
112 1 7.31419 16.1229 2.58513
113 1 8.16543 15.8645 2.92391
114 1 8.05035 14.9664 3.11908
115 1 7.79525 14.8904 4.02782
116 1 7.20724 14.115 3.8688
117 1 6.39058 13.9319 3.4505
118 1 5.87095 13.1585 3.20822
119 1 5.08882 13.0288 3.72704
120 1 5.08631 13.4421 4.59552
121 1 5.01772 13.9403 5.3755
122 1 5.009 14.2631 6.30486
123 1 5.18017 13.7821 7.08899
124 1 5.88148 13.26 7.37594
125 1 6.02534 12.4028 7.66173
126 1 6.74585 12.4114 8.28651
127 1 6.97835 12.6882 9.17894
128 1 6.10487 12.4442 9.52334
ITEM: TIMESTEP
550000
ITEM: NUMBER OF ATOMS
128
ITEM: BOX BOUNDS mm mm mm
-6.4000000000000000e+01 6.4000000000000000e+01
-6.4000000000000000e+01 6.4000000000000000e+01
-6.4000000000000000e+01 6.4000000000000000e+01
ITEM: ATOMS id type x y z
1 1 0.608554 1.97162 5.23123
2 1 0.107583 1.22378 5.20213
3 1 -0.449177 1.12052 5.91082
4 1 -1.0101 0.429411 6.28146
5 1 -1.98688 0.793633 6.34982
6 1 -2.76654 0.560319 6.87588
7 1 -3.28871 -0.169101 6.52144
8 1 -3.93125 -0.807603 6.39508
9 1 -4.171 -1.7522 6.36405
10 1 -3.57886 -2.09484 5.68986
11 1 -2.98741 -2.3403 4.97835
12 1 -3.02665 -1.82753 4.11736
13 1 -2.54816 -1.74365 3.29601
14 1 -3.02106 -1.52163 2.47572
15 1 -3.54723 -1.03092 1.77855
16 1 -3.8537 -1.98265 1.78052
17 1 -3.57137 -2.86537 1.50616
18 1 -3.21604 -3.01381 0.666802
19 1 -3.39373 -2.26565 0.190589
20 1 -3.31039 -2.32429 -0.745486
21 1 -2.70667 -2.23748 -1.45133
22 1 -2.61919 -1.59415 -0.833242
23 1 -2.26169 -1.19593 -1.55189
24 1 -2.35246 -0.417387 -2.09731
25 1 -2.65416 0.464557 -2.33727
26 1 -2.20645 1.15127 -2.75088
27 1 -1.61292 1.74501 -3.14711
28 1 -0.835417 2.33394 -2.95177
29 1 -0.737195 3.27238 -2.85909
30 1 -0.377056 4.12272 -3.12594
31 1 0.207089 4.84209 -3.45329
32 1 0.593546 4.09149 -3.93411
33 1 0.131148 3.89883 -4.7437
34 1 0.356999 3.24793 -5.41614
35 1 -0.250288 2.5314 -5.26915
36 1 -0.0586402 2.17835 -4.42075
37 1 0.660843 1.54647 -4.25928
38 1 0.726039 0.601467 -4.16654
39 1 1.18114 0.26189 -3.38344
40 1 1.67584 -0.590833 -3.61205
41 1 1.57595 -1.54699 -3.36979
42 1 2.28016 -1.43944 -4.03008
43 1 2.16472 -2.29661 -4.33852
44 1 1.66725 -2.89171 -3.7681
45 1 2.09142 -3.11598 -2.94398
46 1 1.16018 -2.8526 -2.83306
47 1 0.310843 -3.22326 -2.98856
48 1 0.404202 -4.06355 -2.60197
49 1 0.543172 -4.37413 -1.77113
50 1 0.412659 -4.32374 -0.822704
51 1 0.298739 -4.79251 -0.0943082
52 1 -0.319454 -4.76868 0.616637
53 1 -0.703037 -5.22705 1.33312
54 1 0.0739447 -5.33055 1.8323
55 1 0.471377 -5.60338 2.65217
56 1 0.79335 -4.76221 2.79025
57 1 0.688286 -4.52352 1.93679
58 1 0.688495 -4.43444 0.999194
59 1 1.33444 -4.5388 0.332279
60 1 1.63764 -4.72007 -0.592225
61 1 2.51401 -4.84407 -0.734094
62 1 3.26406 -5.30638 -1.05979
63 1 3.23623 -4.6589 -1.69071
64 1 3.66051 -5.19373 -2.30476
65 1 3.9514 -5.46216 -3.12076
66 1 4.37113 -4.81122 -3.61174
67 1 3.99455 -4.03066 -3.21889
68 1 3.61659 -3.37617 -2.73476
69 1 4.02552 -2.57555 -2.50042
70 1 4.62234 -2.22324 -1.83718
71 1 4.85819 -1.55598 -1.29106
72 1 5.0217 -1.34992 -0.33387
73 1 4.98083 -2.27739 -0.460377
74 1 5.82005 -2.10282 -0.199254
75 1 6.78119 -2.27913 -0.284763
76 1 6.98616 -1.44135 -0.00809077
77 1 7.30585 -0.620692 0.0591912
78 1 8.04476 -0.0837101 0.376392
79 1 7.41924 0.626639 0.646268
80 1 7.67809 1.51141 0.860266
81 1 7.92934 1.72196 1.71997
82 1 7.34181 1.86872 2.40315
83 1 6.59027 1.26483 2.37904
84 1 5.66127 1.24745 2.58955
85 1 5.62613 1.66555 1.79004
86 1 5.61322 1.85213 0.855713
87 1 6.20736 2.54371 0.684629
88 1 6.93741 2.91334 1.19482
89 1 7.06938 3.71756 1.6673
90 1 6.81303 4.55214 2.0677
91 1 6.0888 4.58906 2.66869
92 1 6.24695 5.48507 2.47443
93 1 6.89598 5.90935 2.94172
94 1 7.45969 6.66658 2.5609
95 1 7.59111 7.57279 2.26206
96 1 6.91057 7.14961 1.77074
97 1 6.01357 7.38697 1.53505
98 1 5.29647 7.97806 1.79315
99 1 4.86704 8.74241 2.09648
100 1 4.22465 9.23815 2.56866
101 1 4.4798 10.0539 2.38037
102 1 4.77255 10.9308 2.24225
103 1 5.54671 11.3573 2.64049
104 1 5.85232 12.224 2.39995
105 1 6.52043 12.4992 3.03981
106 1 6.85172 13.1589 3.60318
107 1 7.75685 13.2248 3.55078
108 1 8.25902 13.548 2.79607
109 1 8.57503 14.1203 2.06902
110 1 9.1179 13.3841 1.96496
111 1 9.12614 13.3487 0.986771
112 1 9.0193 12.4036 1.09941
113 1 9.61835 12.4196 1.83678
114 1 10.4888 12.6851 1.84483
115 1 10.7285 13.4812 1.45924
116 1 10.362 14.3562 1.45028
117 1 10.5392 14.6599 2.31493
118 1 11.005 13.8057 2.39308
119 1 11.578 14.4461 1.95414
120 1 11.9019 15.2409 1.73372
121 1 11.7631 15.9295 2.33036
122 1 12.3482 16.6453 2.38577
123 1 11.6065 16.9784 2.90518
124 1 11.4623 16.6908 3.78409
125 1 11.1112 15.9722 4.29306
126 1 10.6412 16.4256 4.98829
127 1 11.5321 16.5529 5.10367
128 1 11.2714 17.5066 5.27945
ITEM: TIMESTEP
560000
ITEM: NUMBER OF ATOMS
128
ITEM: BOX BOUNDS mm mm mm
-6.4000000000000000e+01 6.4000000000000000e+01
-6.4000000000000000e+01 6.4000000000000000e+01
-6.4000000000000000e+01 6.4000000000000000e+01
ITEM: ATOMS id type x y z
1 1 4.15834 7.60649 -0.259318
2 1 3.89679 6.7442 -0.342455
3 1 3.08319 6.51782 -0.00439165
4 1 3.52787 6.13034 0.707145
5 1 3.60635 5.19638 0.912033
6 1 2.82554 4.9862 0.477885
7 1 2.46615 4.82533 1.34584
8 1 2.02089 4.55087 2.13314
9 1 1.82664 5.13038 2.86591
10 1 1.66441 4.23286 3.20074
11 1 0.964783 3.71564 2.87751
12 1 0.143274 3.21906 2.73653
13 1 0.460398 2.38572 3.04487
14 1 1.39662 2.49192 2.90668
15 1 1.11594 2.47803 1.95587
16 1 1.23447 2.65661 1.03917
17 1 1.57078 3.36168 0.496384
18 1 1.13907 3.48227 -0.299342
19 1 1.32443 3.27467 -1.18122
20 1 1.69799 3.38605 -2.04557
21 1 1.72375 3.98734 -2.80732
22 1 0.886379 3.89906 -3.2089
23 1 1.44412 3.59137 -3.94082
24 1 1.99103 3.13072 -3.29328
25 1 2.16498 2.90924 -4.2309
26 1 2.23671 3.50979 -4.96492
27 1 2.65703 4.14255 -5.56482
28 1 2.54288 3.2901 -6.02864
29 1 1.79882 2.78868 -5.86106
30 1 1.49246 2.68764 -6.73734
31 1 1.8453 1.82392 -6.39036
32 1 2.62718 1.23121 -6.52534
33 1 3.42482 0.701238 -6.51064
34 1 4.21415 0.467538 -6.95395
35 1 3.89245 -0.440866 -6.88078
36 1 3.28993 -0.932709 -7.35994
37 1 2.52558 -0.473354 -7.12991
38 1 1.62938 -0.837413 -6.97925
39 1 1.0181 -0.442834 -6.31785
40 1 0.498768 -0.0676091 -5.64215
41 1 -0.106862 -0.270158 -4.82895
42 1 -0.520831 0.538988 -4.56184
43 1 -1.13214 1.1955 -4.2633
44 1 -2.01543 1.53705 -4.40289
45 1 -2.05207 0.637642 -4.08361
46 1 -1.79725 0.170225 -4.88809
47 1 -1.77878 -0.721388 -5.02491
48 1 -1.60666 -1.64767 -4.74681
49 1 -0.77492 -1.44181 -4.48659
50 1 -0.903149 -1.92509 -3.67388
51 1 -0.296863 -1.20408 -3.48471
52 1 0.585896 -1.33071 -3.71909
53 1 0.727389 -1.61161 -2.81801
54 1 0.918231 -2.38752 -2.24879
55 1 0.411539 -2.75957 -1.50137
56 1 0.283786 -3.47451 -2.05513
57 1 0.00606759 -4.26852 -1.63985
58 1 0.387811 -4.7814 -0.950287
59 1 1.32514 -4.7162 -0.997707
60 1 1.82987 -5.24555 -0.33497
61 1 2.2278 -5.29103 -1.16868
62 1 2.99131 -4.83322 -0.783806
63 1 3.21655 -4.69516 -1.70345
64 1 3.67642 -5.02794 -2.44252
65 1 3.5225 -4.39328 -3.14962
66 1 3.25046 -3.45046 -3.17107
67 1 2.40961 -3.05802 -3.22562
68 1 2.37838 -2.62328 -2.34999
69 1 2.8795 -2.02899 -2.75761
70 1 2.37303 -1.26027 -2.91561
71 1 1.99208 -1.48796 -2.1115
72 1 1.93177 -0.581312 -1.91704
73 1 1.95647 -0.816447 -1.03745
74 1 1.52115 -1.26258 -0.345199
75 1 1.74969 -0.385323 0.156244
76 1 2.32249 -1.03579 0.503898
77 1 2.25098 -1.83196 1.02219
78 1 2.09958 -1.35395 1.82134
79 1 2.54391 -1.13029 2.60547
80 1 2.72243 -0.23851 2.75411
81 1 3.63545 -0.57834 2.75362
82 1 3.84398 -0.417837 1.83347
83 1 4.50363 -0.632965 1.25128
84 1 5.25415 -1.17271 1.42076
85 1 5.72682 -1.94664 1.11732
86 1 6.40084 -1.50985 0.613172
87 1 6.28967 -0.6419 0.251393
88 1 6.75363 -0.283794 -0.486435
89 1 6.59794 0.435438 -1.18896
90 1 6.25493 1.25942 -1.30226
91 1 6.61117 2.08799 -1.21504
92 1 6.06652 2.85422 -1.34489
93 1 6.81317 3.5219 -1.44046
94 1 6.67751 4.42797 -1.76677
95 1 6.79548 5.32659 -1.67753
96 1 7.31698 6.07718 -1.7372
97 1 8.04361 6.61941 -1.37298
98 1 8.49669 7.36238 -1.67936
99 1 8.70211 6.90913 -2.51018
100 1 9.6344 6.93237 -2.65177
101 1 9.83264 7.74918 -2.22545
102 1 9.92079 8.33884 -2.92546
103 1 10.5222 9.02923 -2.85964
104 1 10.8993 9.91123 -2.47001
105 1 10.0969 10.3401 -2.73451
106 1 9.40332 10.9718 -3.06758
107 1 9.06512 10.5564 -2.32389
108 1 8.2818 11.0473 -1.98423
109 1 8.09582 11.0543 -1.05614
110 1 8.5086 10.9349 -0.215405
111 1 8.97447 11.6307 -0.63189
112 1 8.35933 12.3283 -0.895526
113 1 8.48155 13.2088 -0.556389
114 1 9.33136 13.4379 -0.193428
115 1 10.2337 13.8232 -0.0123052
116 1 10.4395 14.4788 -0.645467
117 1 9.94301 14.9502 -1.30111
118 1 9.80081 15.7797 -1.78978
119 1 9.64747 16.1415 -0.916219
120 1 9.71817 16.6236 -0.125891
121 1 9.87124 16.4934 0.75906
122 1 10.7105 16.0961 0.786892
123 1 11.6003 16.1319 0.884236
124 1 11.5282 16.2113 1.81534
125 1 11.6195 15.2857 1.84226
126 1 11.6241 15.1502 2.76454
127 1 11.2972 14.9101 3.66429
128 1 11.1881 14.0029 3.82248
ITEM: TIMESTEP
570000
ITEM: NUMBER OF ATOMS
128
ITEM: BOX BOUNDS mm mm mm
-6.4000000000000000e+01 6.4000000000000000e+01
-6.4000000000000000e+01 6.4000000000000000e+01
-6.4000000000000000e+01 6.4000000000000000e+01
ITEM: ATOMS id type x y z
1 1 2.00066 4.64181 3.9287
2 1 1.3508 5.21206 4.31695
3 1 0.569496 5.52917 4.71391
4 1 0.0969357 4.74117 4.81345
5 1 -0.588358 4.07606 5.05633
6 1 -1.36998 3.6673 4.71368
7 1 -1.7378 2.90135 4.27163
8 1 -2.6762 2.62578 4.15937
9 1 -2.38213 2.49653 3.28946
10 1 -3.12191 2.29974 2.77558
11 1 -3.76261 2.12003 2.1403
12 1 -4.03739 1.91112 1.294
13 1 -4.0045 2.20888 0.425894
14 1 -3.38603 2.87489 0.333074
15 1 -3.95598 3.39699 -0.156494
16 1 -4.39191 3.21011 -0.977776
17 1 -4.64182 3.14777 -1.88676
18 1 -4.87022 3.90945 -2.36979
19 1 -4.55754 4.3276 -3.13617
20 1 -3.91978 3.73375 -3.49864
21 1 -3.84545 4.10314 -4.34133
22 1 -3.78854 4.14879 -5.282
23 1 -3.28894 3.35313 -5.27747
24 1 -2.95286 2.6185 -5.76659
25 1 -2.60306 2.54275 -6.57342
26 1 -1.84991 2.26947 -6.14013
27 1 -1.47667 1.54769 -6.66499
28 1 -1.94032 0.784111 -6.62436
29 1 -1.35129 0.312548 -7.10615
30 1 -1.14086 -0.462796 -6.70893
31 1 -1.2641 -1.13838 -7.32787
32 1 -2.09418 -1.48906 -7.61757
33 1 -2.94025 -1.09023 -7.59711
34 1 -2.49305 -0.337268 -8.03153
35 1 -1.82885 0.357388 -8.00806
36 1 -1.18508 0.106851 -8.66665
37 1 -0.442897 0.703627 -8.83155
38 1 0.308311 0.414084 -8.34284
39 1 0.0965345 1.19237 -7.98453
40 1 -0.265441 1.93198 -8.53661
41 1 -0.690117 2.49145 -9.27448
42 1 -1.27449 2.26704 -8.59073
43 1 -0.949246 2.69319 -7.78789
44 1 -0.342576 3.17183 -8.41687
45 1 0.43078 3.6288 -8.21296
46 1 1.09318 3.55102 -8.8793
47 1 1.619 3.70729 -8.05304
48 1 1.2365 4.44629 -7.54793
49 1 1.84778 4.24464 -6.78413
50 1 2.52101 3.79104 -7.22625
51 1 2.90807 3.17955 -7.8228
52 1 2.18281 2.50583 -7.66355
53 1 1.50215 2.03216 -7.2782
54 1 1.91757 1.39707 -6.73847
55 1 2.42235 0.598897 -6.65636
56 1 2.44158 0.00291498 -5.90774
57 1 2.58246 -0.836808 -5.46648
58 1 3.12761 -0.974636 -6.19345
59 1 3.72263 -1.13412 -5.47862
60 1 3.62918 -0.54087 -4.73947
61 1 3.60949 -0.41171 -3.78619
62 1 3.95597 0.430486 -3.41722
63 1 4.53611 0.525453 -2.70541
64 1 5.29112 1.09943 -2.60398
65 1 5.42592 0.519601 -1.89088
66 1 5.43366 -0.112107 -1.23344
67 1 5.92101 0.432174 -0.661453
68 1 5.07388 0.504036 -0.21308
69 1 4.14229 0.322761 -0.136438
70 1 3.55446 -0.432882 -0.299146
71 1 3.09793 -0.466595 0.486169
72 1 3.20856 0.494059 0.525814
73 1 3.69115 0.686881 1.28443
74 1 2.90975 0.392875 1.7317
75 1 2.45561 1.22905 1.66667
76 1 1.79353 1.02639 1.04576
77 1 1.41688 1.83252 0.6635
78 1 1.10303 2.50031 0.101365
79 1 1.45619 2.94813 0.804381
80 1 2.30031 2.63802 0.566658
81 1 3.13438 2.94247 0.261819
82 1 3.29816 3.84186 0.495768
83 1 4.02748 4.44029 0.443902
84 1 4.14058 5.37264 0.61049
85 1 3.6045 5.26628 -0.0990888
86 1 3.20848 5.87584 -0.672888
87 1 3.39778 5.26956 -1.35368
88 1 3.15866 4.69862 -2.06483
89 1 3.47339 3.89223 -2.37982
90 1 3.11825 3.49974 -3.14227
91 1 4.02933 3.5623 -3.37054
92 1 4.61558 3.49 -2.61715
93 1 4.97515 2.86898 -1.96591
94 1 5.33077 3.72768 -1.77805
95 1 5.04179 4.52161 -1.44673
96 1 5.20909 5.42066 -1.47144
97 1 5.10369 6.17827 -2.17446
98 1 4.64287 6.93192 -2.51849
99 1 3.81913 7.43616 -2.59692
100 1 3.11737 7.67686 -1.97285
101 1 2.75252 7.49589 -1.10249
102 1 1.83686 7.44444 -1.31959
103 1 1.96004 8.33021 -1.04184
104 1 2.60663 9.06698 -1.03821
105 1 3.48341 8.67036 -1.15733
106 1 3.92504 8.12653 -0.50079
107 1 3.80209 8.91752 0.0225866
108 1 3.14491 8.52159 0.459843
109 1 2.88473 9.4142 0.0948333
110 1 3.01667 10.287 -0.137339
111 1 3.91095 10.236 0.0941939
112 1 4.59016 10.4331 0.671404
113 1 4.65779 11.2343 1.13429
114 1 4.65917 11.4831 2.06497
115 1 4.41044 11.4122 2.92972
116 1 5.05196 11.3287 3.58458
117 1 5.92794 11.6327 3.86353
118 1 6.66207 12.2247 3.92109
119 1 6.83591 13.1331 4.04475
120 1 6.20716 13.8383 3.91708
121 1 6.56737 13.9956 3.069
122 1 7.28828 14.586 3.32811
123 1 8.03591 14.713 3.92767
124 1 8.2163 14.1162 4.6022
125 1 8.25008 14.1246 5.50417
126 1 9.11988 14.4615 5.55628
127 1 9.65563 14.4545 4.7721
128 1 9.76147 13.6882 4.25778
ITEM: TIMESTEP
580000
ITEM: NUMBER OF ATOMS
128
ITEM: BOX BOUNDS mm mm mm
-6.4000000000000000e+01 6.4000000000000000e+01
-6.4000000000000000e+01 6.4000000000000000e+01
-6.4000000000000000e+01 6.4000000000000000e+01
ITEM: ATOMS id type x y z
1 1 -4.79932 3.85588 -0.421263
2 1 -4.63294 2.96722 -0.629476
3 1 -3.95623 3.46252 -1.02684
4 1 -3.17252 3.5721 -0.504719
5 1 -2.47164 4.2059 -0.417192
6 1 -2.51932 4.68602 0.39064
7 1 -1.89829 4.198 0.91992
8 1 -1.06642 3.79867 0.973296
9 1 -0.611128 2.98132 0.935865
10 1 -0.141899 2.44226 0.340415
11 1 -0.415512 1.59095 -0.0197901
12 1 -0.4519 2.23109 -0.703165
13 1 -0.568845 3.08169 -1.07315
14 1 -0.425468 4.00872 -1.11862
15 1 0.215515 3.89178 -1.82043
16 1 -0.331828 3.21054 -2.16449
17 1 -1.03662 3.6055 -2.66251
18 1 -1.72163 4.15588 -3.03052
19 1 -2.42277 4.34515 -2.42033
20 1 -3.06291 4.97599 -2.17604
21 1 -2.69144 5.53394 -1.53725
22 1 -1.7755 5.69148 -1.46167
23 1 -1.01905 5.92877 -2.06517
24 1 -1.42709 6.37313 -2.84668
25 1 -0.661938 6.73451 -3.20787
26 1 -1.12689 7.1879 -3.86171
27 1 -1.65414 6.74144 -4.52141
28 1 -1.45709 6.90224 -5.47997
29 1 -0.616676 7.00822 -5.82166
30 1 0.0881466 7.59613 -6.12877
31 1 0.753275 8.09746 -6.64736
32 1 1.44778 7.4741 -6.80388
33 1 1.50406 8.14576 -7.43716
34 1 1.91083 7.81211 -8.18786
35 1 2.7889 7.53258 -7.98156
36 1 3.54974 8.03929 -7.96644
37 1 3.62947 8.92915 -7.80004
38 1 4.02989 9.64341 -7.37509
39 1 4.0618 9.27821 -6.48865
40 1 4.30843 8.38798 -6.66228
41 1 4.02657 7.55946 -6.51712
42 1 3.85999 6.66619 -6.27362
43 1 4.38665 5.88119 -6.46081
44 1 5.23755 5.71521 -6.09582
45 1 5.0908 5.24749 -6.96231
46 1 4.86898 4.43822 -6.62086
47 1 4.07797 4.37981 -6.12753
48 1 3.21883 4.7025 -6.28962
49 1 2.85583 3.86716 -6.32335
50 1 2.56221 3.11471 -5.94238
51 1 1.71952 2.75081 -5.79163
52 1 2.01056 2.89609 -4.91272
53 1 1.87587 3.66433 -4.36338
54 1 2.47194 3.39394 -3.64713
55 1 2.4949 2.46842 -3.24876
56 1 1.66998 2.01229 -2.94058
57 1 2.08307 2.14338 -2.15565
58 1 2.95127 2.1551 -1.81992
59 1 3.53782 1.93569 -1.13625
60 1 3.35996 1.69773 -0.237115
61 1 3.49148 0.750893 -0.0688098
62 1 4.20762 0.859078 -0.652842
63 1 5.01941 0.643536 -0.936128
64 1 5.32756 1.44647 -1.41685
65 1 5.1001 1.831 -0.664885
66 1 5.18382 1.85046 0.256796
67 1 4.78864 1.48893 1.0283
68 1 4.60772 2.41387 1.2866
69 1 4.77545 3.36528 1.26322
70 1 5.59412 3.90774 0.986123
71 1 5.89014 3.88558 0.142995
72 1 5.21229 4.57501 0.00658743
73 1 5.77002 5.3827 -0.0558198
74 1 6.49852 5.62264 0.571854
75 1 5.68432 5.50776 1.06489
76 1 5.01806 5.63746 1.72077
77 1 5.75058 5.88824 2.35418
78 1 5.10784 5.67929 2.96881
79 1 4.61002 5.44451 3.6993
80 1 3.94001 4.82124 3.79239
81 1 3.18878 5.20985 3.35827
82 1 3.61289 6.06646 3.45193
83 1 2.75693 6.3932 3.61674
84 1 1.99966 6.95714 3.43624
85 1 2.56341 7.43758 2.82621
86 1 2.113 7.93177 2.09271
87 1 1.53812 8.16421 1.38053
88 1 1.5659 7.59463 0.621622
89 1 1.60014 6.90729 1.30673
90 1 1.0437 6.30872 1.68533
91 1 0.522567 5.88465 1.00387
92 1 0.0993866 6.32823 0.302769
93 1 0.257036 6.22269 -0.570739
94 1 0.0653292 7.16388 -0.530718
95 1 0.0118323 8.02923 -0.292192
96 1 -0.0748175 8.89201 -0.746016
97 1 -0.577959 9.57745 -1.15904
98 1 -0.301864 9.47656 -2.04212
99 1 0.420656 10.0417 -2.09639
100 1 0.0262043 10.7932 -2.38933
101 1 0.240389 11.48 -1.7643
102 1 0.669551 12.2495 -1.29866
103 1 1.56474 12.5017 -1.02821
104 1 1.1623 12.4452 -0.19602
105 1 0.259664 12.6042 -0.311852
106 1 -0.294393 12.5486 0.426656
107 1 0.297918 12.6404 1.16332
108 1 0.641643 13.5387 1.30545
109 1 1.25985 13.8545 0.686191
110 1 1.79004 13.6132 1.44009
111 1 2.59497 14.0319 1.43962
112 1 3.29882 14.4759 1.9809
113 1 3.61617 15.1881 2.55579
114 1 3.08034 14.8723 3.27426
115 1 4.04664 14.8087 3.43837
116 1 4.26818 15.092 4.29384
117 1 4.71338 15.2162 5.09982
118 1 4.72157 15.9982 4.49952
119 1 5.484 16.4983 4.59793
120 1 5.69209 17.3811 4.26277
121 1 5.49215 17.4225 3.37002
122 1 5.73518 16.8973 2.52493
123 1 6.39569 17.0705 1.90902
124 1 5.62578 17.175 1.43301
125 1 4.76727 17.4825 1.12328
126 1 4.15352 17.6575 1.84814
127 1 3.356 17.1792 1.6652
128 1 3.34923 17.661 0.861599
ITEM: TIMESTEP
590000
ITEM: NUMBER OF ATOMS
128
ITEM: BOX BOUNDS mm mm mm
-6.4000000000000000e+01 6.4000000000000000e+01
-6.4000000000000000e+01 6.4000000000000000e+01
-6.4000000000000000e+01 6.4000000000000000e+01
ITEM: ATOMS id type x y z
1 1 0.0797314 6.92435 1.44869
2 1 -0.644424 7.02901 2.0015
3 1 -1.25408 7.31691 2.76133
4 1 -1.97306 7.70357 3.303
5 1 -2.20123 7.60298 2.39601
6 1 -3.0264 7.99686 2.2416
7 1 -3.50541 8.74435 2.11816
8 1 -4.26146 9.16169 1.82493
9 1 -4.73406 8.3555 1.80915
10 1 -4.33638 7.58912 1.60844
11 1 -4.09155 7.38305 0.654775
12 1 -3.92498 7.95331 -0.110605
13 1 -3.77434 7.91837 -1.08236
14 1 -3.39698 7.40004 -1.78035
15 1 -3.74443 7.35036 -2.67676
16 1 -3.26377 6.54211 -2.43228
17 1 -2.50167 6.87716 -2.7876
18 1 -1.7718 7.12036 -3.34485
19 1 -1.80039 7.53825 -4.171
20 1 -1.41468 7.22667 -4.97294
21 1 -1.54772 8.17384 -5.07592
22 1 -2.13016 8.82767 -4.62722
23 1 -1.82531 9.3819 -3.8753
24 1 -0.945636 9.08374 -3.85569
25 1 -0.744068 9.18971 -2.91292
26 1 -0.829754 8.49537 -2.22349
27 1 -0.214614 9.12302 -1.88992
28 1 0.635745 9.27213 -2.20953
29 1 1.52396 9.05807 -2.35063
30 1 2.35803 9.2304 -2.75366
31 1 2.70338 8.59698 -3.4024
32 1 2.7158 7.69192 -3.20077
33 1 2.25794 6.99077 -3.70452
34 1 1.95323 6.17719 -3.31799
35 1 2.37958 5.39847 -3.69359
36 1 3.23141 5.09724 -3.27951
37 1 3.95078 4.42268 -3.18876
38 1 4.46162 5.11358 -2.89308
39 1 5.08368 5.4349 -2.26301
40 1 4.69784 6.2249 -2.52548
41 1 4.14825 6.98089 -2.76486
42 1 3.5767 6.25953 -2.8775
43 1 3.59823 6.33959 -3.81909
44 1 3.98709 6.35032 -4.64483
45 1 3.42527 6.55436 -5.37876
46 1 2.53451 6.52339 -5.68701
47 1 2.0734 6.93291 -6.42922
48 1 2.40589 7.65513 -5.93454
49 1 1.68162 8.18273 -6.29882
50 1 1.29176 8.35634 -7.16596
51 1 1.21967 7.70715 -7.83439
52 1 0.466872 7.23901 -7.60289
53 1 0.850894 6.44225 -7.25009
54 1 1.04368 5.98882 -6.47444
55 1 0.43877 5.39021 -6.14267
56 1 0.144033 4.47344 -6.19492
57 1 0.392962 3.64674 -6.59299
58 1 0.495333 2.77624 -6.58058
59 1 0.497675 1.99111 -5.9101
60 1 -0.132165 2.2065 -5.22661
61 1 -0.387708 2.23362 -4.35274
62 1 0.204626 2.42748 -3.6457
63 1 0.957771 2.89381 -3.43107
64 1 1.63489 2.3706 -3.70437
65 1 1.78617 2.48409 -2.81723
66 1 2.6188 2.8461 -2.62593
67 1 2.3938 3.74233 -2.23082
68 1 2.59866 4.66847 -2.11547
69 1 3.5029 4.86619 -2.08241
70 1 4.2243 5.11111 -1.51342
71 1 3.99397 5.94499 -1.01202
72 1 3.44104 5.57755 -0.330177
73 1 3.35034 6.1108 0.365781
74 1 2.87426 6.77237 -0.0311488
75 1 3.12112 7.12109 0.789814
76 1 2.87782 7.84511 1.3114
77 1 3.14296 8.63119 1.73259
78 1 3.39785 9.23163 1.05212
79 1 2.89107 9.99687 1.17024
80 1 2.28766 9.22746 0.952192
81 1 2.17196 8.60205 0.234439
82 1 1.38921 8.06788 -0.00137608
83 1 1.98875 7.88615 -0.678786
84 1 2.48719 8.53158 -1.16581
85 1 2.80358 9.22241 -1.77592
86 1 3.36808 9.84247 -1.42446
87 1 2.99359 10.6788 -1.476
88 1 3.67454 11.0916 -1.95738
89 1 3.83631 11.5366 -1.18342
90 1 3.84585 11.3429 -0.289208
91 1 3.49466 12.1776 -0.471582
92 1 3.44527 13.0763 -0.3024
93 1 2.52167 12.7871 -0.0219901
94 1 2.65424 12.6166 0.848481
95 1 2.31531 12.0842 1.54459
96 1 1.72349 12.7544 1.33917
97 1 0.918924 12.6671 0.939463
98 1 0.362082 13.2218 1.45349
99 1 -0.448136 13.6518 1.83368
100 1 -0.558953 14.2921 1.17687
101 1 -0.37026 14.8993 0.513186
102 1 -0.874234 15.6205 0.758266
103 1 -1.32356 16.3438 0.337586
104 1 -1.25673 17.2782 0.21739
105 1 -1.38753 17.4065 1.16545
106 1 -0.523067 17.8685 1.28182
107 1 0.116774 17.9777 1.93491
108 1 0.500246 18.8415 2.04109
109 1 0.997266 18.3648 1.37427
110 1 1.64476 17.691 1.26514
111 1 1.17378 16.8861 1.42368
112 1 2.04072 16.5883 1.39695
113 1 2.7209 17.2268 1.61186
114 1 3.57216 16.8133 1.79901
115 1 3.21218 15.9409 1.66262
116 1 3.84527 15.3237 1.82474
117 1 3.75883 15.7262 2.68612
118 1 4.46505 16.3768 2.73107
119 1 4.61747 15.6359 3.28815
120 1 5.39987 15.1486 3.28685
121 1 5.97099 15.2278 2.54308
122 1 6.29008 15.6392 3.30071
123 1 7.01807 16.034 2.80031
124 1 7.87578 16.0218 2.38127
125 1 8.3143 16.8876 2.23558
126 1 8.7806 17.2964 2.97821
127 1 9.11398 17.0135 3.83337
128 1 8.84009 16.3332 4.37574
ITEM: TIMESTEP
600000
ITEM: NUMBER OF ATOMS
128
ITEM: BOX BOUNDS mm mm mm
-6.4000000000000000e+01 6.4000000000000000e+01
-6.4000000000000000e+01 6.4000000000000000e+01
-6.4000000000000000e+01 6.4000000000000000e+01
ITEM: ATOMS id type x y z
1 1 -3.98093 12.5449 -2.51136
2 1 -4.31667 12.2725 -1.64308
3 1 -4.10414 11.4291 -1.32053
4 1 -3.92336 11.1777 -0.471093
5 1 -3.40018 10.5153 0.00249661
6 1 -2.91006 10.097 -0.701769
7 1 -3.36202 10.0353 -1.5668
8 1 -3.03279 9.10388 -1.62235
9 1 -2.13041 8.87513 -1.30143
10 1 -1.18946 9.08902 -1.46323
11 1 -1.74981 9.48233 -2.10212
12 1 -1.00018 9.41479 -2.58409
13 1 -0.606438 10.1337 -3.04126
14 1 0.113154 10.3974 -3.67817
15 1 0.557368 10.5046 -2.8805
16 1 1.38985 10.2679 -3.34477
17 1 1.68172 9.55683 -3.86777
18 1 1.52907 8.5822 -3.86932
19 1 1.29583 7.79874 -4.24365
20 1 0.874802 7.0007 -4.54535
21 1 1.79312 6.79031 -4.51833
22 1 2.02846 6.17302 -3.86692
23 1 2.71163 6.75127 -3.69599
24 1 3.49104 7.30877 -3.72922
25 1 4.43845 7.0552 -3.71142
26 1 5.35996 6.82357 -3.80657
27 1 5.17792 7.27833 -4.68738
28 1 5.59796 7.21474 -5.56803
29 1 5.90714 6.77668 -6.37231
30 1 6.02185 6.80606 -7.35058
31 1 6.17938 7.30329 -8.20182
32 1 6.59082 8.15133 -8.12068
33 1 7.49409 8.41687 -8.29795
34 1 6.96697 9.16185 -8.07171
35 1 7.13599 9.33967 -8.99493
36 1 6.48146 9.9285 -8.65417
37 1 5.76775 10.0185 -9.20882
38 1 5.20566 10.1557 -9.94391
39 1 4.38483 10.0646 -10.3587
40 1 3.99613 9.73902 -9.63933
41 1 4.19837 8.92238 -10.0423
42 1 4.41881 8.0434 -9.70945
43 1 4.05705 7.17784 -9.68153
44 1 3.74949 6.29228 -9.73142
45 1 3.04719 6.64346 -9.25576
46 1 2.77403 7.56247 -9.04177
47 1 2.91755 8.43196 -9.18713
48 1 3.45783 8.95871 -8.63064
49 1 2.97436 9.23344 -7.88057
50 1 2.16914 9.54891 -7.65583
51 1 1.97104 10.3721 -8.17566
52 1 1.60186 10.7426 -7.41919
53 1 0.869378 10.2876 -7.77708
54 1 0.22502 9.94152 -8.38528
55 1 -0.310709 9.84533 -9.1545
56 1 -1.19946 9.50983 -9.21263
57 1 -1.51866 9.12473 -8.42867
58 1 -1.0125 8.62337 -7.80838
59 1 -1.27692 7.75571 -7.60831
60 1 -1.8747 7.0672 -7.80089
61 1 -1.65476 7.12257 -6.83882
62 1 -1.03833 6.76166 -6.21995
63 1 -0.792594 7.19316 -5.39306
64 1 -1.21212 6.94005 -4.58212
65 1 -0.392636 6.95503 -4.07158
66 1 -0.0922049 6.9313 -3.18038
67 1 -0.173271 6.54164 -2.31982
68 1 -0.282204 6.48011 -1.37557
69 1 0.396618 5.88134 -1.13497
70 1 0.995857 6.53595 -0.988662
71 1 1.4074 7.29797 -0.481073
72 1 0.932617 8.00072 -0.169707
73 1 1.23676 8.91828 0.0495883
74 1 0.757069 8.88231 0.862403
75 1 0.484642 9.73138 0.544675
76 1 0.0209952 10.5592 0.492308
77 1 0.853957 10.9651 0.347264
78 1 1.03772 10.784 -0.557088
79 1 0.515796 11.5359 -0.491391
80 1 0.921548 12.36 -0.48872
81 1 1.38529 13.0386 0.0173609
82 1 2.33349 12.9408 -0.00553293
83 1 2.10726 12.5172 0.786295
84 1 1.73055 11.6976 0.802614
85 1 2.19787 11.8168 1.64578
86 1 1.59777 12.5152 1.72192
87 1 2.42722 12.9547 1.69663
88 1 3.30321 12.6907 1.27836
89 1 3.84941 13.3509 1.72088
90 1 3.1308 13.327 2.31027
91 1 2.77929 14.1404 2.62933
92 1 2.10806 14.878 2.39929
93 1 2.67554 15.5418 2.04029
94 1 3.34564 15.3559 2.73863
95 1 3.40611 16.2402 3.02935
96 1 3.74363 17.0817 3.2297
97 1 3.51694 17.9963 2.88139
98 1 4.11214 18.1329 2.16225
99 1 4.55703 17.517 1.54732
100 1 5.41402 17.6208 1.187
101 1 6.2304 17.5221 1.66834
102 1 5.72385 16.7653 1.89615
103 1 5.74745 15.8555 2.00127
104 1 6.06567 15.4981 2.79029
105 1 5.35515 15.6412 3.41272
106 1 5.7221 16.4522 3.02035
107 1 6.54813 16.853 3.15599
108 1 7.40461 17.1947 2.89797
109 1 7.44467 17.9743 3.38088
110 1 7.96938 17.5925 4.03826
111 1 8.80291 17.9887 4.11774
112 1 9.6336 17.9417 3.74928
113 1 9.91346 17.0396 3.86905
114 1 9.57808 16.2191 4.11279
115 1 8.87196 16.0069 4.72442
116 1 8.72404 15.9747 5.65061
117 1 8.36845 15.1372 5.82195
118 1 8.27075 14.2129 5.86592
119 1 7.57459 14.5966 5.28931
120 1 7.84347 15.0809 4.52382
121 1 7.26739 15.7371 4.2747
122 1 7.51217 16.1246 5.12299
123 1 6.95531 16.2269 5.85515
124 1 7.23761 16.1621 6.73534
125 1 7.8947 16.7642 7.17865
126 1 8.13197 16.8552 8.02117
127 1 8.95342 16.5487 8.51502
128 1 9.46376 16.607 9.28278
ITEM: TIMESTEP
610000
ITEM: NUMBER OF ATOMS
128
ITEM: BOX BOUNDS mm mm mm
-6.4000000000000000e+01 6.4000000000000000e+01
-6.4000000000000000e+01 6.4000000000000000e+01
-6.4000000000000000e+01 6.4000000000000000e+01
ITEM: ATOMS id type x y z
1 1 -2.40856 6.19724 -7.67036
2 1 -2.2875 6.43762 -6.76613
3 1 -3.24927 6.31499 -6.82811
4 1 -3.06277 7.19222 -7.10238
5 1 -2.71855 7.46856 -6.29642
6 1 -2.50081 8.07968 -5.54867
7 1 -2.20389 8.97253 -5.48325
8 1 -1.73846 9.74755 -5.32453
9 1 -0.75748 9.66743 -5.6091
10 1 -0.398331 8.85874 -5.89252
11 1 0.21098 9.44849 -5.45392
12 1 0.548968 10.3366 -5.33482
13 1 0.981755 11.1501 -5.07353
14 1 1.20723 10.8921 -4.19717
15 1 1.83585 10.3342 -4.60091
16 1 2.29647 9.50647 -4.70248
17 1 2.91874 9.09045 -5.33057
18 1 3.38979 8.61037 -5.9468
19 1 3.50823 8.21028 -5.11159
20 1 4.50321 8.13693 -5.03423
21 1 4.51838 7.88971 -5.88822
22 1 5.37312 7.91347 -6.36622
23 1 5.7852 7.61312 -7.16908
24 1 5.84368 6.77944 -6.77029
25 1 6.4452 6.13087 -6.39617
26 1 6.21471 5.85374 -7.24285
27 1 6.07732 4.89838 -7.29927
28 1 5.20993 4.50521 -7.50196
29 1 4.32204 4.04942 -7.59062