ITEM: TIMESTEP
1060000
ITEM: NUMBER OF ATOMS
128
ITEM: BOX BOUNDS mm mm mm
-6.4000000000000000e+01 6.4000000000000000e+01
-6.4000000000000000e+01 6.4000000000000000e+01
-6.4000000000000000e+01 6.4000000000000000e+01
ITEM: ATOMS id type x y z
1 1 -24.6785 15.4007 11.7213
2 1 -23.8936 15.2125 12.2098
3 1 -23.7058 15.2762 13.1835
4 1 -23.3083 15.5618 14.0443
5 1 -22.3642 15.4612 14.3565
6 1 -21.5194 15.6699 13.9687
7 1 -20.8647 15.8866 13.2412
8 1 -20.8503 16.2915 12.3198
9 1 -20.6797 15.4926 11.8134
10 1 -20.6837 14.9705 11.0572
11 1 -20.2183 14.9016 10.2561
12 1 -19.468 14.6818 9.68761
13 1 -18.6916 14.2697 9.93953
14 1 -17.7702 14.0697 10.3501
15 1 -16.8668 14.2564 10.1256
16 1 -15.9567 14.1041 9.7897
17 1 -15.3841 13.412 9.49586
18 1 -15.0009 12.6574 9.10432
19 1 -15.4078 11.8156 9.16405
20 1 -16.1045 11.3355 8.90147
21 1 -16.5338 10.5515 8.4346
22 1 -16.4481 10.4535 7.50456
23 1 -16.4016 10.5449 6.55795
24 1 -16.7192 10.5415 5.66916
25 1 -16.7886 9.8215 5.08348
26 1 -16.0815 9.2287 4.99317
27 1 -15.4496 8.87285 4.40796
28 1 -14.8439 8.90771 3.69508
29 1 -14.2597 8.98423 2.9328
30 1 -14.6444 8.54418 2.19151
31 1 -15.2537 8.22955 1.51361
32 1 -16.1621 8.34482 1.54466
33 1 -16.964 8.90252 1.5342
34 1 -17.4903 9.35841 0.90213
35 1 -18.2974 9.38505 0.525253
36 1 -18.7905 8.79279 0.00222372
37 1 -18.4053 8.08812 -0.541047
38 1 -18.7834 7.71965 -1.28785
39 1 -18.9324 7.70431 -2.17042
40 1 -19.4177 8.11756 -2.80462
41 1 -18.7179 8.75989 -2.6088
42 1 -17.7755 8.78034 -2.77001
43 1 -16.9475 8.77013 -3.2082
44 1 -16.5045 8.66653 -4.03518
45 1 -15.7809 9.03778 -4.52612
46 1 -14.8782 8.76791 -4.69514
47 1 -14.199 9.05985 -5.23656
48 1 -13.3594 9.32571 -5.08952
49 1 -13.3748 10.1734 -4.66559
50 1 -13.0875 11.0778 -4.65272
51 1 -12.8956 11.8774 -4.2054
52 1 -12.3489 12.0515 -3.46477
53 1 -11.9474 12.0862 -2.63437
54 1 -11.7261 12.3499 -1.77332
55 1 -11.7665 12.4536 -0.891767
56 1 -10.9705 12.6217 -0.557061
57 1 -10.0628 12.3535 -0.58143
58 1 -9.36586 12.0931 -0.0250837
59 1 -8.94649 11.667 0.680619
60 1 -8.59211 10.8299 0.561489
61 1 -8.26558 10.0342 1.00506
62 1 -8.8245 10.3371 1.76281
63 1 -9.48996 10.4686 2.31075
64 1 -9.4697 10.7944 3.18197
65 1 -8.92244 11.4201 3.63954
66 1 -8.01957 11.3351 4.05706
67 1 -7.3726 10.7394 4.34505
68 1 -7.39056 9.90077 3.98713
69 1 -7.40013 8.92231 4.08291
70 1 -7.51435 8.05681 3.75144
71 1 -8.29624 8.2643 4.22787
72 1 -8.83271 8.83052 4.81635
73 1 -9.22762 8.51995 5.61646
74 1 -8.61489 8.68411 6.33291
75 1 -8.1054 9.23946 6.96369
76 1 -8.36462 9.40413 7.87721
77 1 -9.2521 9.26068 8.25712
78 1 -9.18693 10.2372 8.42244
79 1 -9.94861 10.7029 8.7641
80 1 -10.0229 11.61 8.66426
81 1 -10.4944 12.3743 8.4146
82 1 -10.7059 13.28 8.54126
83 1 -10.5932 14.2047 8.57173
84 1 -10.873 15.1028 8.57184
85 1 -11.2173 15.9501 8.54692
86 1 -11.3036 16.1438 9.46066
87 1 -11.1448 15.5036 10.1122
88 1 -10.8898 14.9227 10.806
89 1 -10.6203 14.8191 11.6815
90 1 -10.7359 14.3895 12.5271
91 1 -11.2962 13.8897 13.1049
92 1 -10.48 13.8098 13.553
93 1 -10.7144 14.5945 14.0285
94 1 -11.5829 14.7623 13.7113
95 1 -12.2149 14.1367 13.937
96 1 -12.1176 13.2176 14.1042
97 1 -12.0398 12.5089 14.6918
98 1 -11.931 11.7275 15.1454
99 1 -11.3637 11.2423 15.6971
100 1 -12.119 10.771 16.043
101 1 -12.4248 10.2639 16.7785
102 1 -12.6043 10.4621 17.7017
103 1 -12.2205 11.1903 18.1068
104 1 -11.7593 12.0146 18.0523
105 1 -11.055 12.5254 17.7798
106 1 -10.5209 12.4576 16.9548
107 1 -10.3245 13.1597 16.3673
108 1 -9.93153 13.9414 16.014
109 1 -10.8614 14.0264 16.143
110 1 -11.3767 14.56 15.4558
111 1 -11.3603 15.3569 15.0149
112 1 -11.1777 16.1161 15.5094
113 1 -11.674 16.8651 15.8164
114 1 -11.5856 17.7422 15.3892
115 1 -11.2035 18.5487 15.3196
116 1 -11.2216 19.4961 15.2636
117 1 -11.0729 20.4471 15.5034
118 1 -11.9034 21.0589 15.4705
119 1 -12.4129 20.4327 14.926
120 1 -12.5292 19.6175 15.3075
121 1 -12.2264 19.4005 16.1389
122 1 -12.4159 20.0766 16.7343
123 1 -12.4264 21.0682 16.6324
124 1 -12.5863 21.8978 17.1634
125 1 -12.8666 22.7337 16.9052
126 1 -12.1905 23.3898 16.8678
127 1 -11.4714 23.9958 16.6865
128 1 -10.6299 24.2418 16.9508
ITEM: TIMESTEP
1070000
ITEM: NUMBER OF ATOMS
128
ITEM: BOX BOUNDS mm mm mm
-6.4000000000000000e+01 6.4000000000000000e+01
-6.4000000000000000e+01 6.4000000000000000e+01
-6.4000000000000000e+01 6.4000000000000000e+01
ITEM: ATOMS id type x y z
1 1 -18.8498 14.168 10.7606
2 1 -18.5539 14.7926 10.1151
3 1 -17.9197 15.4648 10.1989
4 1 -18.5231 15.8357 9.5512
5 1 -19.4642 15.8994 9.34364
6 1 -19.8693 15.6851 8.54736
7 1 -20.7296 15.5417 8.18043
8 1 -21.1876 14.7434 8.11293
9 1 -21.0625 13.8825 8.06734
10 1 -20.8189 13.1565 8.65634
11 1 -20.519 12.4715 8.13429
12 1 -20.2074 11.7697 7.59786
13 1 -19.918 11.6409 6.69976
14 1 -19.0359 11.4537 6.9643
15 1 -18.2223 11.8701 7.09385
16 1 -17.4272 12.3251 6.92999
17 1 -16.8468 11.5353 7.01197
18 1 -16.2427 10.9627 6.67404
19 1 -16.2299 10.3173 5.95285
20 1 -15.9931 10.3642 5.0379
21 1 -16.0231 10.1283 4.152
22 1 -16.2856 10.855 3.66368
23 1 -16.2691 10.6013 2.72365
24 1 -15.4238 10.8681 2.42615
25 1 -15.0487 10.9976 1.58604
26 1 -15.0654 10.6728 0.72037
27 1 -14.968 10.5712 -0.205509
28 1 -15.6143 10.3232 -0.842524
29 1 -15.9934 9.58624 -1.27921
30 1 -15.8421 8.80096 -1.84544
31 1 -15.7106 7.90348 -2.14915
32 1 -15.9356 7.37363 -2.85497
33 1 -15.9174 6.64205 -3.3554
34 1 -16.092 6.02411 -4.02691
35 1 -16.3443 5.53531 -4.77471
36 1 -16.8677 5.29778 -5.49958
37 1 -17.0911 4.66712 -4.82088
38 1 -16.9781 4.45872 -3.90075
39 1 -16.973 3.60567 -4.1187
40 1 -16.7553 3.44544 -5.02407
41 1 -16.1898 4.18692 -5.3307
42 1 -15.2238 4.28273 -5.14308
43 1 -14.4459 4.47735 -5.7519
44 1 -13.761 5.00888 -6.08553
45 1 -13.0465 4.61164 -6.56988
46 1 -12.8139 5.32883 -7.04287
47 1 -12.0802 5.78047 -7.30081
48 1 -11.2489 5.62042 -7.7313
49 1 -10.4011 5.27464 -7.93669
50 1 -9.60553 4.85036 -7.92769
51 1 -8.80718 5.16208 -7.46345
52 1 -8.14765 5.3547 -6.85151
53 1 -7.583 5.33823 -6.13423
54 1 -8.04169 6.09459 -5.8214
55 1 -8.17928 6.89244 -5.36734
56 1 -8.18361 7.77941 -5.57512
57 1 -8.0039 7.99157 -4.67019
58 1 -8.0426 8.41079 -3.88311
59 1 -7.65243 8.688 -3.10707
60 1 -6.8551 8.67274 -2.57973
61 1 -6.24499 9.18304 -2.04486
62 1 -6.30378 10.0933 -2.30942
63 1 -5.4731 10.3824 -1.90483
64 1 -5.0051 9.52597 -1.7452
65 1 -5.25658 8.65022 -1.527
66 1 -5.68632 8.19492 -0.789308
67 1 -6.12112 7.69082 -0.144154
68 1 -6.56007 8.02895 0.642891
69 1 -6.66276 8.24883 1.55303
70 1 -5.94201 7.90938 2.01873
71 1 -5.11963 7.80881 2.43074
72 1 -4.68177 8.61371 2.45451
73 1 -4.41367 8.74569 3.34493
74 1 -5.3899 8.64246 3.425
75 1 -5.92456 9.39672 3.50431
76 1 -6.18293 10.2241 3.21863
77 1 -6.85685 10.3997 3.87808
78 1 -6.77686 10.9231 4.65579
79 1 -6.44952 11.7629 4.97924
80 1 -5.93308 12.2316 5.65199
81 1 -6.24069 12.9696 6.15658
82 1 -6.42319 12.5853 7.04432
83 1 -6.77968 12.3971 7.87329
84 1 -7.34048 12.1006 8.60735
85 1 -7.99065 11.4083 8.4612
86 1 -8.6844 11.0255 9.0457
87 1 -9.3799 11.5165 9.42534
88 1 -9.68299 11.2937 10.3036
89 1 -8.92349 11.6982 10.6775
90 1 -9.21938 12.3819 11.1991
91 1 -9.17874 12.5718 12.1409
92 1 -9.34114 13.1584 12.8508
93 1 -9.13334 13.4416 13.7104
94 1 -9.92569 13.7896 13.4712
95 1 -10.4365 14.2945 13.9884
96 1 -11.2152 14.2181 14.4016
97 1 -11.3966 14.4407 15.3138
98 1 -11.1773 13.5249 15.2345
99 1 -10.534 12.8328 15.4791
100 1 -9.88334 12.1923 15.7126
101 1 -9.28042 12.8404 15.953
102 1 -8.46644 13.214 15.6004
103 1 -7.95824 13.8156 16.0563
104 1 -7.34377 14.1216 16.6486
105 1 -6.71961 14.8009 16.4905
106 1 -6.80268 15.2545 17.3492
107 1 -6.64984 15.9543 17.95
108 1 -6.71049 16.5031 18.7095
109 1 -6.09309 16.8849 19.4064
110 1 -5.40754 17.4693 19.6932
111 1 -6.25993 17.9616 19.5941
112 1 -6.87863 18.6236 19.7557
113 1 -6.19178 19.0959 20.1875
114 1 -5.37374 18.8139 19.902
115 1 -4.99035 19.4645 19.3543
116 1 -4.82559 19.0914 18.5272
117 1 -4.21015 18.828 17.8203
118 1 -4.02992 19.1019 16.9203
119 1 -4.78644 18.9862 16.3966
120 1 -4.7961 19.3715 15.5284
121 1 -4.73168 20.1545 14.9766
122 1 -4.42124 21.0272 15.1674
123 1 -4.38125 21.9491 14.9856
124 1 -3.99538 22.6169 14.401
125 1 -4.44857 23.4108 14.2971
126 1 -5.22995 23.0427 14.5784
127 1 -6.14684 23.0103 14.8666
128 1 -6.19629 23.8033 14.4389
ITEM: TIMESTEP
1080000
ITEM: NUMBER OF ATOMS
128
ITEM: BOX BOUNDS mm mm mm
-6.4000000000000000e+01 6.4000000000000000e+01
-6.4000000000000000e+01 6.4000000000000000e+01
-6.4000000000000000e+01 6.4000000000000000e+01
ITEM: ATOMS id type x y z
1 1 -19.6868 17.84 3.90272
2 1 -20.065 17.7977 4.75386
3 1 -19.7232 17.2832 5.47132
4 1 -19.915 16.9632 6.38662
5 1 -20.5508 16.6317 6.97586
6 1 -20.5199 17.4919 7.40352
7 1 -21.4579 17.3984 7.51349
8 1 -21.3612 16.4988 7.84918
9 1 -21.1007 15.6846 7.75682
10 1 -20.8596 14.8242 7.83507
11 1 -20.5252 14.0035 7.47664
12 1 -20.2577 13.3204 6.90233
13 1 -19.629 12.9933 6.33096
14 1 -18.9291 12.423 6.05781
15 1 -19.0693 11.8764 5.26453
16 1 -19.1639 10.9638 4.9841
17 1 -19.3872 10.0373 4.7768
18 1 -18.8211 9.43832 4.27897
19 1 -18.4509 8.78626 3.73779
20 1 -18.2628 8.73692 2.77259
21 1 -19.0303 8.69675 2.16376
22 1 -19.3168 8.859 1.3148
23 1 -20.2031 8.91097 1.0565
24 1 -20.9134 9.44692 0.699987
25 1 -21.0299 10.3291 0.409364
26 1 -21.0687 11.1114 -0.166864
27 1 -20.8373 11.0569 -1.08391
28 1 -20.662 10.18 -1.46306
29 1 -20.0845 9.42976 -1.64705
30 1 -19.2053 9.20323 -1.98565
31 1 -18.5409 9.58938 -2.54135
32 1 -17.6571 9.62689 -2.79501
33 1 -16.8577 9.75838 -3.27144
34 1 -16.7892 9.71152 -4.2213
35 1 -16.5517 9.59899 -5.15218
36 1 -16.3516 10.0269 -5.96854
37 1 -15.9891 10.468 -6.6913
38 1 -15.1553 10.7584 -6.95614
39 1 -14.7355 10.0327 -7.35214
40 1 -14.4402 9.59622 -6.63891
41 1 -13.9073 9.87154 -5.89847
42 1 -13.1499 9.35161 -6.06457
43 1 -12.2516 9.12511 -6.47336
44 1 -11.364 9.50217 -6.50412
45 1 -10.8186 10.2642 -6.22093
46 1 -10.8946 10.9088 -5.51633
47 1 -11.2283 10.5932 -4.65918
48 1 -11.2028 10.1202 -3.82763
49 1 -10.4771 9.55814 -3.61828
50 1 -11.1037 8.9517 -3.29394
51 1 -10.899 8.2917 -2.58339
52 1 -11.6895 8.02147 -2.05457
53 1 -11.7453 8.68652 -1.36458
54 1 -10.8142 8.74705 -1.19074
55 1 -9.92393 8.53733 -1.00771
56 1 -9.13205 8.77752 -0.580199
57 1 -8.88859 7.85729 -0.616866
58 1 -8.62541 7.41385 0.171085
59 1 -8.09191 7.31559 0.941369
60 1 -8.19541 7.38026 1.87228
61 1 -8.54004 7.99862 2.49219
62 1 -8.63208 8.38837 3.40132
63 1 -7.95951 8.26343 4.05639
64 1 -7.4995 8.24555 4.92372
65 1 -6.68299 8.44844 5.31312
66 1 -5.75886 8.13424 5.36234
67 1 -5.21201 8.77031 4.88706
68 1 -4.49308 8.16414 4.62586
69 1 -4.08759 8.90148 5.07053
70 1 -4.03398 9.86051 4.91927
71 1 -4.17853 10.6144 5.49448
72 1 -5.01979 10.4782 5.96438
73 1 -5.66207 9.83448 6.18492
74 1 -5.93166 8.95291 6.09937
75 1 -5.97039 8.10886 6.49912
76 1 -6.55596 7.69308 7.1016
77 1 -7.36498 8.02254 6.77596
78 1 -7.91352 8.71276 7.08495
79 1 -8.39873 9.452 7.27806
80 1 -8.05203 10.1617 7.77783
81 1 -8.53434 10.7916 8.26712
82 1 -8.82806 10.8194 9.10994
83 1 -9.25004 9.95168 9.28491
84 1 -10.1171 10.1155 9.65309
85 1 -10.7523 10.6408 10.1164
86 1 -11.5432 11.1554 10.1198
87 1 -12.1441 11.7435 10.5627
88 1 -12.4068 12.3582 11.1723
89 1 -12.0388 13.0934 11.6358
90 1 -11.4424 13.5208 12.1886
91 1 -11.5181 14.1097 12.9307
92 1 -11.8313 14.2787 13.7479
93 1 -11.6287 14.6203 14.5966
94 1 -11.2393 15.3419 15.1583
95 1 -11.5694 15.5561 16.0172
96 1 -11.446 16.3964 16.4133
97 1 -11.8001 16.781 17.1571
98 1 -12.7181 16.6281 16.887
99 1 -12.4007 16.7213 16.0246
100 1 -11.9357 17.5157 15.9663
101 1 -11.206 17.7052 16.5501
102 1 -10.4864 17.1783 16.5208
103 1 -9.85342 16.5604 16.8379
104 1 -9.69541 16.1387 16.0113
105 1 -9.16623 16.1478 15.2806
106 1 -9.16804 16.7448 14.5706
107 1 -9.08469 17.6462 14.8162
108 1 -9.44766 18.3486 15.5071
109 1 -8.8263 18.8644 15.9777
110 1 -7.94645 19.1559 16.2082
111 1 -7.37971 19.8125 16.5011
112 1 -6.82794 20.6082 16.7888
113 1 -5.92487 20.4927 17.0434
114 1 -5.51363 21.165 17.5634
115 1 -5.86891 21.2664 18.4786
116 1 -5.79452 21.446 19.4455
117 1 -5.12078 22.0367 19.6739
118 1 -4.82832 22.9638 19.7
119 1 -4.11434 23.3993 20.064
120 1 -3.51852 23.3702 19.3601
121 1 -3.39832 23.4061 18.4341
122 1 -3.24611 23.7492 17.5922
123 1 -3.13228 22.9739 17.1342
124 1 -2.84076 22.1988 16.6895
125 1 -2.24695 21.5494 16.2436
126 1 -1.55525 21.0788 15.8419
127 1 -0.871599 20.4971 15.5764
128 1 -0.527862 21.2363 15.0784
ITEM: TIMESTEP
1090000
ITEM: NUMBER OF ATOMS
128
ITEM: BOX BOUNDS mm mm mm
-6.4000000000000000e+01 6.4000000000000000e+01
-6.4000000000000000e+01 6.4000000000000000e+01
-6.4000000000000000e+01 6.4000000000000000e+01
ITEM: ATOMS id type x y z
1 1 -26.3904 13.4676 6.19659
2 1 -27.075 14.0402 5.74244
3 1 -26.891 14.0572 4.81578
4 1 -27.1574 14.5188 4.01041
5 1 -27.1967 14.7404 3.11686
6 1 -26.9813 15.2909 2.38491
7 1 -26.4115 15.0967 1.59887
8 1 -26.1353 14.3957 1.08051
9 1 -25.9301 14.2164 0.112587
10 1 -25.6521 13.7325 -0.631115
11 1 -25.9121 12.8622 -0.986917
12 1 -25.7929 11.9752 -1.1872
13 1 -26.1129 11.133 -1.52601
14 1 -25.698 10.4575 -2.00805
15 1 -25.7201 10.6439 -2.94945
16 1 -26.4428 10.6106 -3.51521
17 1 -27.0197 11.3229 -3.73059
18 1 -26.7213 11.8208 -4.49674
19 1 -26.369 11.6334 -5.37323
20 1 -26.091 11.5085 -6.31841
21 1 -25.1722 11.4791 -6.22766
22 1 -24.9305 12.2281 -5.64135
23 1 -24.3479 12.6375 -5.05907
24 1 -23.4188 12.6387 -4.8394
25 1 -22.588 12.7775 -4.388
26 1 -21.7137 12.5149 -4.00797
27 1 -21.2975 11.6329 -4.07981
28 1 -20.9384 10.734 -4.36792
29 1 -20.9942 9.89624 -4.78893
30 1 -21.405 9.04091 -4.85963
31 1 -20.9376 8.62113 -4.14196
32 1 -20.4278 9.06355 -3.44376
33 1 -19.6045 8.86401 -3.01804
34 1 -19.2242 8.82908 -3.8622
35 1 -18.5828 8.24439 -4.09536
36 1 -18.2855 7.50453 -3.5708
37 1 -17.6346 7.60836 -2.93563
38 1 -17.4314 6.93952 -2.26385
39 1 -17.1628 7.34418 -1.39868
40 1 -16.7892 7.61066 -0.591826
41 1 -16.6969 8.43269 -0.0941346
42 1 -16.8392 9.25307 0.322157
43 1 -17.4143 9.99886 0.233754
44 1 -17.7201 10.2464 1.05381
45 1 -17.6631 11.1812 1.37481
46 1 -17.1397 11.9124 1.29877
47 1 -16.2837 12.0651 0.950812
48 1 -15.543 12.7254 1.03316
49 1 -14.9611 12.7642 1.79294
50 1 -14.1868 12.3783 2.12928
51 1 -13.3165 12.4946 1.85237
52 1 -13.2591 12.3773 0.854855
53 1 -13.2683 11.7383 0.166226
54 1 -12.6974 11.2377 -0.327063
55 1 -11.8878 10.8787 -0.520522
56 1 -11.7285 10.3568 -1.27135
57 1 -11.3796 11.0711 -1.81218
58 1 -11.1358 11.1688 -2.71315
59 1 -11.4016 10.3376 -3.1214
60 1 -10.8261 9.6426 -3.00587
61 1 -10.3165 10.1336 -2.46578
62 1 -9.43426 10.4275 -2.41449
63 1 -9.03431 9.57657 -2.19572
64 1 -8.64133 9.83455 -1.33481
65 1 -8.18678 8.98155 -1.30847
66 1 -8.15473 8.24126 -0.727576
67 1 -8.91457 7.93792 -0.266028
68 1 -9.24615 7.589 0.563227
69 1 -9.96102 6.96017 0.542938
70 1 -10.563 7.30091 1.19298
71 1 -11.1287 7.67884 1.88762
72 1 -11.1548 7.91958 2.82107
73 1 -10.9064 8.6521 3.35953
74 1 -10.3064 8.43003 4.07032
75 1 -10.0048 8.77493 4.90567
76 1 -9.60348 9.46675 5.39844
77 1 -9.54684 10.1945 5.96875
78 1 -10.3347 10.4831 6.41983
79 1 -9.78547 11.0988 6.74134
80 1 -8.91372 10.7698 6.69124
81 1 -8.00755 10.772 6.88207
82 1 -7.30771 10.9152 7.45108
83 1 -6.47522 11.3044 7.56625
84 1 -6.3215 11.8221 8.41848
85 1 -6.60797 11.2237 9.06745
86 1 -5.96203 10.792 9.59337
87 1 -5.67752 11.6657 9.85483
88 1 -5.21855 12.4367 9.43028
89 1 -4.48819 12.8738 9.901
90 1 -4.18942 13.7634 9.7459
91 1 -4.15821 14.6724 9.45951
92 1 -4.57982 15.3796 8.89314
93 1 -5.14869 16.0357 8.54118
94 1 -5.67809 16.6891 8.87371
95 1 -6.12251 17.513 8.87732
96 1 -6.26185 17.7687 9.77239
97 1 -6.18441 18.4929 10.3801
98 1 -7.07618 18.6246 10.6859
99 1 -6.8694 19.4015 11.212
100 1 -6.6526 20.1126 11.8291
101 1 -6.06463 20.7804 11.5061
102 1 -5.08667 20.8079 11.5694
103 1 -4.55791 20.0193 11.5845
104 1 -4.80819 19.7431 12.4787
105 1 -4.26763 19.7201 13.2494
106 1 -3.36829 19.8921 13.0101
107 1 -2.47634 19.6666 13.117
108 1 -2.38855 20.5911 13.0719
109 1 -3.01539 21.2456 13.0436
110 1 -3.09376 21.7932 13.8139
111 1 -3.27615 22.1225 14.7194
112 1 -3.85798 22.3404 15.4669
113 1 -4.34159 22.8095 16.122
114 1 -3.6121 23.4102 16.0963
115 1 -3.43274 24.3243 16.3506
116 1 -3.28902 25.2483 16.3206
117 1 -2.60347 25.8479 16.0027
118 1 -2.12703 26.6694 15.9568
119 1 -2.04681 26.5008 16.8383
120 1 -1.96573 25.7362 17.4204
121 1 -1.19135 25.5604 16.9732
122 1 -1.27681 24.5975 16.9342
123 1 -0.861929 23.7717 16.6702
124 1 -1.028 22.8963 16.8968
125 1 -0.52159 22.5135 16.1713
126 1 -0.149087 22.0358 15.4881
127 1 -0.185086 21.7811 14.5822
128 1 -0.325204 21.2561 13.7682
ITEM: TIMESTEP
1100000
ITEM: NUMBER OF ATOMS
128
ITEM: BOX BOUNDS mm mm mm
-6.4000000000000000e+01 6.4000000000000000e+01
-6.4000000000000000e+01 6.4000000000000000e+01
-6.4000000000000000e+01 6.4000000000000000e+01
ITEM: ATOMS id type x y z
1 1 -24.2213 20.9409 -0.21498
2 1 -23.2987 20.9519 -0.21248
3 1 -22.445 21.4142 -0.238367
4 1 -21.8864 20.7059 -0.341219
5 1 -21.8729 19.842 -0.709878
6 1 -21.3327 19.0719 -0.733345
7 1 -20.736 18.758 -0.0929878
8 1 -20.2387 18.0564 0.33276
9 1 -20.5176 17.4252 0.920198
10 1 -20.7867 17.3265 1.89403
11 1 -21.7035 17.5118 2.22854
12 1 -22.3541 16.9021 2.39751
13 1 -23.0143 16.2594 2.26373
14 1 -23.1152 15.3098 2.0363
15 1 -23.8485 14.7412 1.78903
16 1 -24.5264 14.3494 1.26969
17 1 -24.9761 14.3317 0.449227
18 1 -25.7693 14.0925 -0.00218613
19 1 -26.1209 13.4325 -0.590785
20 1 -25.9071 13.2294 -1.46251
21 1 -25.5244 12.6036 -1.95103
22 1 -24.9763 12.62 -2.73395
23 1 -24.512 13.3855 -2.94239
24 1 -23.7488 13.3626 -2.3772
25 1 -22.8073 13.1194 -2.36817
26 1 -22.8039 13.6686 -3.15883
27 1 -22.2419 14.1211 -3.74291
28 1 -21.7037 14.8361 -3.4414
29 1 -21.6956 14.8236 -2.50815
30 1 -21.0005 15.4123 -2.17446
31 1 -21.3052 16.2765 -2.06188
32 1 -20.5304 16.7436 -2.16266
33 1 -19.9813 16.2552 -2.84548
34 1 -19.9003 15.3209 -2.60372
35 1 -20.1169 14.6255 -1.98009
36 1 -19.5195 14.0036 -2.25788
37 1 -18.631 13.9689 -1.9744
38 1 -18.0409 14.5091 -1.42162
39 1 -18.063 13.6386 -1.0176
40 1 -18.1211 12.7744 -0.555024
41 1 -17.944 12.0101 0.0513567
42 1 -17.1059 11.6639 0.0583316
43 1 -16.195 11.5334 -0.192512
44 1 -15.4793 12.0956 0.126732
45 1 -15.0226 12.1179 0.993064
46 1 -14.305 11.5322 0.92008
47 1 -13.4811 11.0952 0.834153
48 1 -12.8841 10.3395 0.889685
49 1 -12.9642 10.4642 1.85005
50 1 -12.7073 11.0696 2.43468
51 1 -12.1888 11.8465 2.30888
52 1 -12.5085 12.5443 2.83879
53 1 -12.2255 13.0247 3.62328
54 1 -12.2452 13.22 4.53827
55 1 -11.7847 13.2751 5.3521
56 1 -11.3165 13.5403 6.0827
57 1 -10.4009 13.7996 5.96915
58 1 -9.63326 13.5909 5.37936
59 1 -9.54895 12.8435 4.83319
60 1 -9.41873 11.9859 4.34974
61 1 -8.59669 11.8226 4.00498
62 1 -8.22443 11.2593 3.37359
63 1 -7.44019 11.0902 2.84913
64 1 -6.97047 11.0316 2.02309
65 1 -6.84996 11.5911 1.26008
66 1 -6.68783 12.3179 0.786437
67 1 -6.93686 13.2016 0.689973
68 1 -7.43759 13.935 0.474778
69 1 -8.26728 13.9026 0.84562
70 1 -8.68026 14.57 1.36799
71 1 -9.16029 15.3194 1.79618
72 1 -8.31244 15.4785 2.15119
73 1 -8.44316 14.9882 2.93919
74 1 -8.53967 14.7094 3.82763
75 1 -7.59553 14.8488 4.21952
76 1 -7.28073 14.5058 5.08526
77 1 -7.28172 13.6112 5.31298
78 1 -8.07394 13.2767 4.95194
79 1 -8.2003 12.5459 5.61867
80 1 -8.07742 11.5774 5.79195
81 1 -8.88616 11.6393 6.1937
82 1 -9.71272 11.6813 6.55963
83 1 -9.90784 11.5383 7.49413
84 1 -9.45865 11.6648 8.31516
85 1 -9.65047 11.6501 9.28013
86 1 -9.26986 12.0561 10.0481
87 1 -9.57364 12.5636 10.7728
88 1 -10.2685 12.9944 11.2762
89 1 -10.7713 13.3225 11.9807
90 1 -10.9662 14.0474 11.4428
91 1 -10.8501 14.9861 11.1515
92 1 -10.7284 15.8528 11.5131
93 1 -10.0825 16.5281 11.6513
94 1 -9.30665 17.0819 11.7204
95 1 -8.79856 17.7966 11.939
96 1 -8.41917 18.5109 12.403
97 1 -8.20048 19.4 12.5331
98 1 -7.54667 19.927 12.0991
99 1 -6.80802 19.3982 12.3949
100 1 -6.3269 18.7806 12.8776
101 1 -5.6501 18.4017 13.4727
102 1 -5.19088 18.5168 14.3232
103 1 -5.23811 19.007 15.1335
104 1 -4.3163 19.0548 15.076
105 1 -3.4764 18.5921 15.036
106 1 -2.66374 18.1384 15.1684
107 1 -1.72603 18.28 15.0156
108 1 -0.896126 18.5996 15.1595
109 1 -0.0369094 18.7953 15.5605
110 1 0.769534 18.866 16.0142
111 1 0.94031 19.6732 15.683
112 1 1.50971 20.303 15.1823
113 1 1.45852 21.2583 15.1282
114 1 1.09889 22.0555 15.5001
115 1 0.456798 21.952 16.2329
116 1 0.379255 22.1103 17.142
117 1 0.654568 22.1138 18.0582
118 1 1.33496 21.8424 18.7039
119 1 2.1967 21.5546 18.5933
120 1 2.44569 22.2649 19.1947
121 1 3.37606 22.2993 19.2503
122 1 4.23787 22.4812 19.5373
123 1 4.94662 21.8082 19.5404
124 1 5.14635 21.069 20.1021
125 1 5.01018 20.3991 20.7385
126 1 4.80908 20.6757 21.6376
127 1 4.09083 21.2481 21.7323
128 1 3.8038 21.6557 20.8857
ITEM: TIMESTEP
1110000
ITEM: NUMBER OF ATOMS
128
ITEM: BOX BOUNDS mm mm mm
-6.4000000000000000e+01 6.4000000000000000e+01
-6.4000000000000000e+01 6.4000000000000000e+01
-6.4000000000000000e+01 6.4000000000000000e+01
ITEM: ATOMS id type x y z
1 1 -25.5308 21.2288 3.9471
2 1 -25.2764 20.7276 3.18685
3 1 -25.217 20.3581 2.37523
4 1 -25.4793 19.7087 1.74638
5 1 -24.8742 19.3207 2.39206
6 1 -24.3369 18.9934 3.16612
7 1 -23.5527 18.8433 3.73061
8 1 -23.2086 18.1409 3.26696
9 1 -23.2139 17.9231 2.37389
10 1 -23.9931 17.3293 2.18507
11 1 -23.9885 16.3744 2.32747
12 1 -23.6146 15.5167 2.5333
13 1 -23.1574 14.7519 2.46845
14 1 -23.7808 14.0618 2.19939
15 1 -24.3197 14.119 1.43534
16 1 -24.3321 14.0666 0.485176
17 1 -25.0253 13.8419 -0.0590362
18 1 -25.4062 13.0588 -0.453572
19 1 -25.2822 12.1525 -0.252749
20 1 -24.3683 12.229 -0.469527
21 1 -23.7253 12.6859 -0.930495
22 1 -23.3151 13.2335 -0.239039
23 1 -22.5063 13.7591 -0.216383
24 1 -21.6667 13.6497 0.164757
25 1 -21.3697 13.4018 1.05797
26 1 -21.8836 14.1357 1.20976
27 1 -22.3775 14.1475 2.00019
28 1 -22.1299 13.9075 2.88102
29 1 -21.3606 14.2216 3.29398
30 1 -21.2631 13.2964 3.5513
31 1 -20.5222 13.1698 4.10081
32 1 -19.6393 12.923 4.35444
33 1 -18.6653 12.9588 4.36552
34 1 -18.4446 13.8143 4.52386
35 1 -18.3782 14.6174 4.01222
36 1 -18.3297 14.8705 4.92111
37 1 -18.9113 14.8151 5.68448
38 1 -19.4581 15.5115 5.32164
39 1 -20.1253 16.1357 5.35376
40 1 -20.7721 16.732 5.45896
41 1 -20.643 17.5 4.87786
42 1 -19.7688 17.202 4.69748
43 1 -19.3642 16.4691 4.3111
44 1 -18.6403 16.3528 3.72121
45 1 -17.7998 15.9653 3.76763
46 1 -16.8819 15.8544 3.65831
47 1 -16.6301 15.4306 2.89844
48 1 -15.82 14.8866 2.87277
49 1 -15.1461 15.1405 3.5285
50 1 -14.5159 15.4377 4.13263
51 1 -15.1688 14.9664 4.65658
52 1 -15.0502 15.5008 5.38937
53 1 -14.7344 15.556 6.28483
54 1 -14.501 14.66 6.45704
55 1 -15.2081 14.1355 6.25998
56 1 -15.3592 13.353 5.72077
57 1 -15.9512 12.6298 5.60377
58 1 -16.503 12.0948 4.94008
59 1 -16.8414 11.4104 4.32677
60 1 -16.6305 10.692 3.78105
61 1 -16.2273 10.0168 4.36479
62 1 -15.3491 9.55823 4.42743
63 1 -14.5813 9.80527 3.93419
64 1 -14.5714 10.5169 4.54135
65 1 -13.8509 11.0784 4.09409
66 1 -12.8529 11.2147 3.97737
67 1 -11.9322 11.4784 3.76682
68 1 -12.0164 12.3943 3.88313
69 1 -12.0054 13.3351 3.61392
70 1 -12.16 14.2877 3.65005
71 1 -12.5407 14.9585 4.13421
72 1 -11.8315 15.4264 4.53727
73 1 -11.8555 16.1548 3.92537
74 1 -12.2362 16.1172 2.99468
75 1 -12.2226 15.5906 2.23725
76 1 -12.5405 15.1213 1.48132
77 1 -11.9012 14.5916 1.91022
78 1 -11.3118 14.9591 2.59825
79 1 -10.7859 15.3371 3.29418
80 1 -10.5202 15.7711 4.08117
81 1 -11.0075 16.1226 4.80503
82 1 -11.3702 16.2623 5.70337
83 1 -11.9177 16.6986 6.32135
84 1 -12.3706 15.8068 6.29756
85 1 -12.4778 15.2179 7.02798
86 1 -12.1346 14.3564 7.07841
87 1 -11.6028 14.0909 7.7777
88 1 -11.133 13.253 7.83863
89 1 -10.2364 12.9396 7.7207
90 1 -10.2835 13.743 8.27449
91 1 -10.4414 14.6586 8.47804
92 1 -9.75985 15.3308 8.6726
93 1 -9.13032 15.9061 9.0378
94 1 -9.40156 16.2711 9.89773
95 1 -8.91179 16.8404 10.5289
96 1 -8.40003 17.5412 10.98
97 1 -7.73626 17.9056 11.554
98 1 -7.14908 18.342 12.1335
99 1 -7.09342 18.441 13.0555
100 1 -6.74612 17.598 13.2162
101 1 -6.01651 17.1038 13.654
102 1 -5.34163 17.2391 14.3063
103 1 -4.95418 17.7315 15.1285
104 1 -5.08025 17.1953 16.0051
105 1 -4.18526 16.9629 15.8656
106 1 -3.83426 16.1894 16.3092
107 1 -3.85796 15.2512 16.2278
108 1 -3.69383 14.3642 16.0459
109 1 -2.98637 14.7137 15.4944
110 1 -2.1781 15.0552 15.0248
111 1 -1.8373 15.892 15.329
112 1 -0.841227 15.8084 15.0651
113 1 -0.0854911 15.6597 15.632
114 1 0.0700927 15.0962 16.3668
115 1 -0.465689 15.7385 16.6608
116 1 -0.686788 16.5265 16.243
117 1 -0.39419 17.1949 15.6589
118 1 -0.667792 17.9482 15.0855
119 1 -0.484844 18.8587 14.8646
120 1 0.355205 19.21 15.1408
121 1 0.619382 19.4289 16.0102
122 1 1.23242 19.6962 16.6948
123 1 2.17963 19.8419 16.837
124 1 2.22436 19.768 17.767
125 1 2.62318 19.743 18.6068
126 1 2.66646 19.9613 19.5633
127 1 2.83513 20.3065 20.3839
128 1 3.70012 20.3763 20.7215
ITEM: TIMESTEP
1120000
ITEM: NUMBER OF ATOMS
128
ITEM: BOX BOUNDS mm mm mm
-6.4000000000000000e+01 6.4000000000000000e+01
-6.4000000000000000e+01 6.4000000000000000e+01
-6.4000000000000000e+01 6.4000000000000000e+01
ITEM: ATOMS id type x y z
1 1 -26.5848 13.2767 1.88904
2 1 -26.6784 12.3285 2.01775
3 1 -26.4145 12.0275 1.16315
4 1 -26.2748 12.0019 0.24706
5 1 -25.5695 12.1357 -0.323099
6 1 -25.0096 12.1871 -1.10672
7 1 -24.2677 12.2824 -1.6908
8 1 -23.5171 12.433 -1.19681
9 1 -23.9784 13.2676 -1.17236
10 1 -24.6287 13.8726 -1.04658
11 1 -24.4515 14.7775 -1.25002
12 1 -24.5946 15.0167 -2.15073
13 1 -24.5585 15.1884 -3.09218
14 1 -24.8226 14.9027 -3.95335
15 1 -24.6317 15.4499 -4.65948
16 1 -24.1924 16.2547 -4.89007
17 1 -23.8032 15.9186 -4.07873
18 1 -23.6264 16.0265 -3.10686
19 1 -23.0862 16.051 -2.33744
20 1 -22.1959 16.0297 -1.84322
21 1 -21.3701 16.0915 -2.27905
22 1 -20.6725 16.5356 -1.88569
23 1 -20.4718 16.6224 -1.01542
24 1 -19.8081 17.038 -0.437121
25 1 -18.9325 16.5807 -0.473824
26 1 -18.3154 15.8663 -0.372258
27 1 -17.49 16.1178 -0.0417541
28 1 -16.7364 16.1419 0.526333
29 1 -16.528 16.9817 0.934717
30 1 -16.0393 17.5529 1.52541
31 1 -16.4692 17.3138 2.32434
32 1 -16.8964 16.886 3.00844
33 1 -16.7428 16.1031 3.51769
34 1 -16.169 15.2579 3.71532
35 1 -15.4551 15.0002 3.14549
36 1 -15.1816 14.3307 2.55423
37 1 -14.7287 13.6698 2.11558
38 1 -14.6539 12.8025 1.72571
39 1 -15.2984 12.5085 1.0602
40 1 -15.9168 11.7162 0.990525
41 1 -16.6427 12.2409 0.640958
42 1 -17.4274 12.2169 1.02426
43 1 -18.0451 11.545 0.84823
44 1 -18.8199 11.1108 1.07376
45 1 -18.9713 11.0354 1.97716
46 1 -19.4999 10.3781 2.48889
47 1 -19.8155 9.58153 2.79892
48 1 -19.3447 9.14172 3.43022
49 1 -19.2903 8.22773 3.7109
50 1 -19.1784 7.86827 4.52959
51 1 -20.0189 7.64447 4.85405
52 1 -20.2489 6.8236 5.28036
53 1 -19.8983 7.02334 6.09653
54 1 -19.0213 7.35818 6.06708
55 1 -18.7431 8.24248 6.27969
56 1 -18.1285 8.42603 5.56239
57 1 -17.23 8.55139 5.33651
58 1 -16.2586 8.56724 5.21571
59 1 -16.283 9.35757 5.72361
60 1 -15.9089 9.06193 6.52347
61 1 -15.958 9.2686 7.47003
62 1 -16.2499 10.1004 7.83965
63 1 -16.6774 10.9554 7.88248
64 1 -16.6393 11.8118 7.54239
65 1 -16.6613 12.1162 6.66025
66 1 -15.8431 12.0776 6.17978
67 1 -15.2939 12.5702 5.60314
68 1 -14.7553 13.0434 5.01974
69 1 -13.8199 12.9041 5.13654
70 1 -12.9624 12.8427 4.87215
71 1 -12.3348 12.9137 4.12775
72 1 -11.88 13.3428 3.41779
73 1 -11.1517 13.6322 2.93284
74 1 -10.6328 13.8186 3.67456
75 1 -10.1389 13.4262 4.37589
76 1 -10.6722 14.0834 4.72535
77 1 -10.9464 14.1173 5.64119
78 1 -10.3672 14.4663 6.25061
79 1 -10.0875 15.3466 6.1757
80 1 -9.42793 15.9488 6.36248
81 1 -8.83375 16.4092 6.85698
82 1 -9.12408 17.3179 6.87615
83 1 -9.19148 18.0573 7.44851
84 1 -9.21698 18.8624 7.82916
85 1 -9.87238 19.5275 7.68528
86 1 -10.1606 19.4046 8.6096
87 1 -10.2068 19.1642 9.55121
88 1 -10.0407 18.8576 10.3964
89 1 -10.0444 18.171 11.0428
90 1 -10.8415 18.033 11.4676
91 1 -10.3912 17.1907 11.5595
92 1 -10.0181 16.3303 11.5093
93 1 -9.15337 16.018 11.7313
94 1 -8.46673 15.3558 11.5405
95 1 -7.57442 15.0018 11.4021
96 1 -6.76254 14.7744 11.78
97 1 -6.34031 14.8403 12.632
98 1 -5.73183 15.2761 13.25
99 1 -5.60987 15.572 14.1086
100 1 -4.79504 15.2473 13.7495
101 1 -3.94494 15.0754 14.1569
102 1 -3.12892 15.2761 14.5228
103 1 -2.41951 14.6793 14.4382
104 1 -1.52092 14.8838 14.2354
105 1 -0.781008 15.536 14.4858
106 1 0.0356361 16.0507 14.2778
107 1 0.637295 16.6464 13.7549
108 1 1.42763 16.6052 14.2092
109 1 1.6829 16.6445 15.1303
110 1 1.19851 16.3668 15.8883
111 1 0.762864 16.561 16.7425
112 1 1.56307 16.8724 17.1194
113 1 1.74129 17.793 17.1771
114 1 2.67505 18.0159 17.237
115 1 3.18065 17.9245 18.02
116 1 3.87561 17.5742 18.578
117 1 3.99986 17.214 19.4183
118 1 3.06919 17.3209 19.75
119 1 2.21134 16.976 19.9273
120 1 2.13874 16.3409 20.6006
121 1 1.76373 15.7911 21.2148
122 1 1.18074 15.2121 21.7231
123 1 0.632214 14.9041 22.4713
124 1 0.473341 15.6826 23.0167
125 1 0.686576 16.2569 23.8044
126 1 0.574294 16.4865 24.7264
127 1 0.328683 16.4638 25.5851
128 1 0.95194 16.3487 26.3045
ITEM: TIMESTEP
1130000
ITEM: NUMBER OF ATOMS
128
ITEM: BOX BOUNDS mm mm mm
-6.4000000000000000e+01 6.4000000000000000e+01
-6.4000000000000000e+01 6.4000000000000000e+01
-6.4000000000000000e+01 6.4000000000000000e+01
ITEM: ATOMS id type x y z
1 1 -23.4301 10.0926 4.54705
2 1 -22.6417 10.5702 4.15687
3 1 -22.0607 11.2228 4.53724
4 1 -21.2316 10.8252 4.54056
5 1 -20.9567 10.7129 3.65466
6 1 -20.7447 11.2889 2.8792
7 1 -21.0507 11.9699 2.28096
8 1 -21.3557 12.8299 2.15585
9 1 -20.6828 13.3201 1.70115
10 1 -20.639 14.2119 1.32579
11 1 -20.3566 14.9444 1.86053
12 1 -20.3056 15.7817 2.33682
13 1 -19.5254 16.0797 2.75612
14 1 -18.9865 16.5572 3.40487
15 1 -19.2896 16.2656 4.26839
16 1 -20.1808 16.0701 4.61896
17 1 -20.5865 16.8775 4.68032
18 1 -21.0555 17.5375 4.19728
19 1 -21.3639 18.1679 3.49166
20 1 -21.7579 18.5848 2.76484
21 1 -21.0464 19.0015 2.33018
22 1 -20.1197 19.1454 2.14543
23 1 -19.3439 19.5615 1.90207
24 1 -19.4433 18.7157 1.49873
25 1 -19.2458 17.993 1.99274
26 1 -19.318 17.1603 1.64651
27 1 -18.9858 16.2648 1.40532
28 1 -18.5046 15.4549 1.47592
29 1 -18.2768 14.6093 1.15584
30 1 -18.4159 14.2665 0.339439
31 1 -18.3571 13.5338 -0.218943
32 1 -17.5621 12.9655 -0.0835503
33 1 -16.6546 13.1855 0.162644
34 1 -16.0189 13.8835 0.161436
35 1 -15.3924 14.6103 0.259412
36 1 -14.9059 15.1061 -0.281138