ITEM: TIMESTEP
2100000
ITEM: NUMBER OF ATOMS
128
ITEM: BOX BOUNDS mm mm mm
-6.4000000000000000e+01 6.4000000000000000e+01
-6.4000000000000000e+01 6.4000000000000000e+01
-6.4000000000000000e+01 6.4000000000000000e+01
ITEM: ATOMS id type x y z
1 1 -29.0185 21.6821 15.0847
2 1 -28.3697 22.3078 14.8823
3 1 -27.6464 23.0146 14.741
4 1 -27.1081 23.6948 14.3915
5 1 -26.5339 24.3055 13.9057
6 1 -25.8862 24.8716 13.4656
7 1 -25.2383 25.4564 13.2147
8 1 -24.4771 25.7755 12.8744
9 1 -23.7262 26.3391 12.6903
10 1 -23.0239 26.907 12.4445
11 1 -22.4596 27.5918 12.1535
12 1 -21.838 28.2531 12.0447
13 1 -21.4027 28.9952 11.7884
14 1 -20.8209 29.5937 11.3663
15 1 -20.3951 30.3327 11.0217
16 1 -19.8425 31.0797 10.9342
17 1 -19.5221 31.9534 10.8379
18 1 -19.0035 32.6969 10.6728
19 1 -18.6931 33.5696 10.7748
20 1 -18.4324 34.4631 10.6368
21 1 -18.468 35.3874 10.3714
22 1 -18.3788 36.2781 10.0083
23 1 -17.9959 37.1088 9.92974
24 1 -17.888 37.9976 9.78211
25 1 -17.8138 38.9762 9.69467
26 1 -17.6842 39.8446 9.35683
27 1 -17.5262 40.6709 8.96465
28 1 -17.5351 41.4495 8.47221
29 1 -17.5045 42.0465 7.72953
30 1 -17.2928 42.6819 7.16796
31 1 -17.0018 43.2371 6.43191
32 1 -16.7909 43.7853 5.71819
33 1 -16.5084 44.4615 5.12996
34 1 -16.1637 45.0496 4.44987
35 1 -15.748 45.4347 3.66115
36 1 -15.4054 45.4914 2.75152
37 1 -14.9747 45.4781 1.99486
38 1 -14.6394 45.4961 1.08719
39 1 -14.2872 45.4328 0.23299
40 1 -13.6992 45.3227 -0.567346
41 1 -13.0441 45.0346 -1.1695
42 1 -12.3733 44.7459 -1.68062
43 1 -11.7159 44.3534 -2.17852
44 1 -10.9063 44.0435 -2.51913
45 1 -10.145 43.6273 -2.87599
46 1 -9.62631 42.9824 -3.40679
47 1 -8.90076 42.6556 -3.90348
48 1 -8.15933 42.237 -4.32388
49 1 -7.29137 41.9207 -4.65443
50 1 -6.48834 41.4891 -4.93228
51 1 -5.65713 41.0087 -5.05013
52 1 -4.89894 40.4116 -5.1724
53 1 -4.15965 39.8002 -5.25436
54 1 -3.62713 39.0297 -5.29021
55 1 -3.06632 38.3487 -5.48425
56 1 -2.48239 37.6007 -5.62693
57 1 -1.92419 36.8514 -5.80317
58 1 -1.28481 36.0873 -5.95393
59 1 -0.670762 35.3955 -5.96796
60 1 0.0485492 34.7321 -5.95817
61 1 0.762955 34.2055 -5.62255
62 1 1.54 33.8965 -5.0738
63 1 2.25981 33.6387 -4.56994
64 1 3.06567 33.4939 -4.0438
65 1 3.67113 33.3037 -3.36336
66 1 4.31291 33.0811 -2.64022
67 1 4.90439 32.7305 -2.02497
68 1 5.25048 32.3556 -1.22139
69 1 5.76139 32.0111 -0.457025
70 1 6.32492 31.6705 0.171634
71 1 6.63322 31.0449 0.85934
72 1 6.60774 30.3659 1.57297
73 1 6.60252 29.6754 2.26221
74 1 6.52573 29.0095 2.94489
75 1 6.90237 28.2722 3.41462
76 1 6.94274 27.3698 3.71875
77 1 6.70594 26.5466 4.15586
78 1 6.5907 25.6145 4.36819
79 1 6.64395 24.669 4.53286
80 1 6.69167 23.7472 4.60315
81 1 6.72244 22.7884 4.30795
82 1 6.76868 21.8848 3.94269
83 1 6.92944 21.0155 3.5665
84 1 6.50186 20.2295 3.13089
85 1 6.17563 19.4147 2.65919
86 1 5.88101 18.7494 2.07712
87 1 5.52395 18.0798 1.5221
88 1 5.24457 17.3918 0.956566
89 1 4.98543 16.7616 0.255879
90 1 4.53901 16.2445 -0.383121
91 1 4.38783 15.6012 -1.04589
92 1 4.23856 15.2048 -1.85909
93 1 3.92737 15.0287 -2.73823
94 1 3.58301 15.209 -3.60548
95 1 3.49304 15.3404 -4.52192
96 1 3.30303 15.2346 -5.41814
97 1 3.16601 15.0991 -6.35653
98 1 2.96319 15.1759 -7.32302
99 1 2.5931 15.3372 -8.13839
100 1 2.39637 15.5298 -9.04397
101 1 2.03255 15.7268 -9.8394
102 1 1.63571 15.9957 -10.6402
103 1 1.25171 16.402 -11.3868
104 1 0.865455 16.7878 -12.1218
105 1 0.536666 17.0803 -12.9544
106 1 0.228408 17.3247 -13.8196
107 1 0.188001 17.3738 -14.7683
108 1 0.0217826 17.4057 -15.7127
109 1 -0.151787 17.3192 -16.6192
110 1 -0.264671 17.0146 -17.5064
111 1 -0.620897 16.7677 -18.2745
112 1 -0.997428 16.5561 -19.1106
113 1 -1.39928 16.4323 -19.9477
114 1 -1.9068 16.1067 -20.7512
115 1 -2.33398 15.8146 -21.5415
116 1 -2.87905 15.5062 -22.2708
117 1 -3.52171 15.3438 -22.9364
118 1 -4.03604 15.3151 -23.8256
119 1 -4.46757 14.93 -24.5373
120 1 -4.59117 14.311 -25.2589
121 1 -4.38511 13.6991 -25.9691
122 1 -4.21103 13.4113 -26.8581
123 1 -3.94346 13.1671 -27.7163
124 1 -3.58191 13.0501 -28.5626
125 1 -3.35663 13.0459 -29.4856
126 1 -3.20954 12.8989 -30.3995
127 1 -2.87846 12.9093 -31.3553
128 1 -2.47234 12.8896 -32.1736
ITEM: TIMESTEP
2110000
ITEM: NUMBER OF ATOMS
128
ITEM: BOX BOUNDS mm mm mm
-6.4000000000000000e+01 6.4000000000000000e+01
-6.4000000000000000e+01 6.4000000000000000e+01
-6.4000000000000000e+01 6.4000000000000000e+01
ITEM: ATOMS id type x y z
1 1 -25.4161 21.2457 8.72933
2 1 -25.1303 21.9798 9.17164
3 1 -24.804 22.6041 9.7322
4 1 -24.3315 23.081 10.4194
5 1 -23.6818 23.5213 10.8737
6 1 -22.9802 23.8279 11.3918
7 1 -22.2037 24.2928 11.7346
8 1 -21.4178 24.5069 12.2198
9 1 -20.7688 24.5658 12.8672
10 1 -20.3553 25.0334 13.5766
11 1 -20.101 25.6234 14.3079
12 1 -19.8039 26.3509 14.8763
13 1 -19.6793 27.2067 15.2401
14 1 -19.7665 28.1316 15.4864
15 1 -19.8714 29.0717 15.6153
16 1 -19.8662 30.0215 15.4023
17 1 -19.7998 30.88 14.9649
18 1 -19.6435 31.5716 14.2948
19 1 -19.587 32.3312 13.6913
20 1 -19.436 33.0341 13.113
21 1 -19.1724 33.77 12.5202
22 1 -18.7304 34.4639 12.0173
23 1 -18.2317 34.9884 11.4692
24 1 -17.6157 35.5532 11.0595
25 1 -17.0576 36.2443 10.6367
26 1 -16.5674 37.0064 10.3715
27 1 -16.2417 37.8888 10.164
28 1 -15.5676 38.5605 10.0796
29 1 -14.9533 39.2788 9.89928
30 1 -14.3219 40.01 9.79876
31 1 -13.6514 40.6083 9.65883
32 1 -12.8697 41.0413 9.31539
33 1 -12.3711 41.6012 8.7548
34 1 -11.9853 42.253 8.18718
35 1 -11.5625 42.6713 7.42471
36 1 -11.1118 42.9982 6.67865
37 1 -10.7652 43.0091 5.75488
38 1 -10.2426 42.9857 5.01412
39 1 -9.9171 43.2168 4.15153
40 1 -9.85997 43.3886 3.29489
41 1 -9.86552 43.4796 2.337
42 1 -9.78414 43.4488 1.43115
43 1 -9.74232 43.2645 0.507488
44 1 -9.92257 43.1045 -0.399733
45 1 -10.0436 43.1043 -1.30336
46 1 -10.1057 42.8543 -2.19102
47 1 -10.1632 42.6514 -3.1415
48 1 -10.0284 42.5099 -4.06552
49 1 -9.58403 42.0386 -4.7848
50 1 -8.89205 41.8048 -5.36256
51 1 -8.2123 41.4219 -5.96117
52 1 -7.57614 41.0328 -6.51554
53 1 -6.79272 40.564 -6.82604
54 1 -5.90066 40.315 -6.77224
55 1 -5.0289 40.0789 -6.95007
56 1 -4.16293 39.8208 -6.91915
57 1 -3.26318 39.5503 -6.9966
58 1 -2.38576 39.2276 -7.05762
59 1 -1.60906 38.7542 -7.02886
60 1 -0.935923 38.1337 -6.76078
61 1 -0.290058 37.426 -6.59564
62 1 0.344416 36.7353 -6.36283
63 1 1.14659 36.3053 -6.13507
64 1 1.87368 35.77 -5.89847
65 1 2.59274 35.2636 -5.53923
66 1 3.35246 34.8925 -5.27614
67 1 4.07677 34.3791 -5.05354
68 1 4.59778 33.6898 -4.6486
69 1 5.40013 33.168 -4.51702
70 1 5.91323 32.4179 -4.42312
71 1 6.30048 31.6131 -4.20171
72 1 6.76939 30.8301 -3.95336
73 1 6.89279 29.9411 -3.52703
74 1 7.02664 28.9903 -3.31789
75 1 7.28945 28.1499 -2.98436
76 1 7.37954 27.2594 -2.65581
77 1 7.34671 26.3899 -2.26586
78 1 7.43999 25.5546 -1.84126
79 1 7.71435 24.9005 -1.22162
80 1 7.98308 24.0244 -0.996117
81 1 8.20659 23.1113 -1.19321
82 1 8.49824 22.3284 -1.47228
83 1 8.65236 21.5684 -1.94015
84 1 8.95016 20.6892 -2.28051
85 1 9.11084 19.8771 -2.80821
86 1 9.03455 19.0711 -3.29648
87 1 8.89101 18.2686 -3.77228
88 1 8.49901 17.5366 -4.16816
89 1 7.86324 16.9188 -4.51303
90 1 7.20016 16.445 -5.03525
91 1 6.596 15.8312 -5.44177
92 1 6.00821 15.1941 -5.74941
93 1 5.54723 14.5578 -6.23045
94 1 5.30084 14.0214 -6.95079
95 1 4.90118 13.6096 -7.70338
96 1 4.4121 13.1662 -8.40645
97 1 4 12.6358 -9.07705
98 1 3.55004 12.0696 -9.66515
99 1 2.99079 11.7469 -10.4511
100 1 2.51342 11.4544 -11.2086
101 1 1.84842 11.4161 -11.8469
102 1 1.23489 11.1934 -12.5194
103 1 0.906266 11.0114 -13.376
104 1 0.283316 10.7361 -14.01
105 1 -0.30061 10.5217 -14.7109
106 1 -0.735203 10.4166 -15.5803
107 1 -1.11794 10.0618 -16.3584
108 1 -1.36755 10.0075 -17.2977
109 1 -1.64945 10.0608 -18.231
110 1 -1.85933 9.93424 -19.1618
111 1 -1.91424 9.85458 -20.0447
112 1 -1.92126 9.97939 -20.9217
113 1 -1.69032 10.188 -21.8371
114 1 -1.66138 10.3947 -22.7827
115 1 -1.7371 10.6573 -23.6739
116 1 -1.77406 10.9532 -24.563
117 1 -2.04352 11.4333 -25.3627
118 1 -2.3502 11.7593 -26.1966
119 1 -2.5386 12.3327 -26.9586
120 1 -2.7586 12.9002 -27.6812
121 1 -3.10214 13.4 -28.4677
122 1 -3.25978 13.916 -29.2213
123 1 -3.16012 14.6499 -29.9032
124 1 -2.97628 15.3054 -30.5466
125 1 -2.48137 15.978 -30.9659
126 1 -1.90352 16.6832 -31.2985
127 1 -1.3661 17.3502 -31.7149
128 1 -1.11965 18.3192 -31.761
ITEM: TIMESTEP
2120000
ITEM: NUMBER OF ATOMS
128
ITEM: BOX BOUNDS mm mm mm
-6.4000000000000000e+01 6.4000000000000000e+01
-6.4000000000000000e+01 6.4000000000000000e+01
-6.4000000000000000e+01 6.4000000000000000e+01
ITEM: ATOMS id type x y z
1 1 -24.4279 27.2754 7.05532
2 1 -23.7308 27.0831 7.68855
3 1 -22.9005 27.0911 8.20603
4 1 -22.2188 27.1985 8.86989
5 1 -21.5515 27.3936 9.52605
6 1 -20.691 27.4107 10.0278
7 1 -20.1537 27.3922 10.8098
8 1 -19.4736 27.5702 11.4468
9 1 -18.764 27.8946 11.9437
10 1 -18.1369 28.4348 12.4326
11 1 -17.3595 28.8835 12.5289
12 1 -16.5433 29.2566 12.7547
13 1 -15.8392 29.8329 12.6076
14 1 -15.0977 30.2986 12.3512
15 1 -14.3467 30.7744 12.0148
16 1 -13.6244 31.2985 11.6453
17 1 -12.8565 31.6061 11.3337
18 1 -11.9079 31.8106 11.4241
19 1 -11.103 32.2672 11.6335
20 1 -10.2579 32.6954 11.5445
21 1 -9.5287 33.1291 11.2633
22 1 -8.97397 33.8216 10.8856
23 1 -8.6332 34.6625 10.5346
24 1 -8.09648 35.3453 10.1725
25 1 -7.97807 36.0846 9.55914
26 1 -7.95327 36.8593 8.96367
27 1 -8.17106 37.7495 8.68414
28 1 -8.47057 38.5833 8.40766
29 1 -9.00605 39.3162 8.09755
30 1 -9.73527 39.8285 7.81159
31 1 -10.3522 40.3114 7.32236
32 1 -10.7551 41.041 6.98912
33 1 -11.0768 41.72 6.38085
34 1 -11.4463 42.3682 5.76272
35 1 -11.638 43.0605 5.11113
36 1 -11.9637 43.7595 4.55916
37 1 -12.1843 44.488 3.96698
38 1 -12.0485 45.201 3.30255
39 1 -11.8246 45.9319 2.67831
40 1 -11.6599 46.4322 1.91579
41 1 -11.5343 46.9488 1.0777
42 1 -11.2152 47.3499 0.323505
43 1 -11.0693 47.7148 -0.524923
44 1 -11.1269 47.6146 -1.50157
45 1 -11.0491 47.5788 -2.43627
46 1 -10.8558 47.2058 -3.284
47 1 -10.5932 46.681 -4.07164
48 1 -10.2246 46.3192 -4.89219
49 1 -9.58445 46.1594 -5.58166
50 1 -8.7859 45.9676 -6.09183
51 1 -8.21923 45.5404 -6.67068
52 1 -7.65477 44.8432 -6.89891
53 1 -6.94085 44.2396 -7.05666
54 1 -6.18687 43.7403 -7.07034
55 1 -5.33324 43.3526 -6.89247
56 1 -4.61315 42.8077 -6.9729
57 1 -3.8221 42.3072 -7.15548
58 1 -3.0914 41.7802 -7.3934
59 1 -2.29567 41.2419 -7.60002
60 1 -1.47495 40.859 -7.86058
61 1 -0.766338 40.212 -8.19708
62 1 -0.219741 39.4865 -8.44959
63 1 0.512536 38.9126 -8.65993
64 1 1.1686 38.2673 -8.68441
65 1 1.66467 37.5136 -8.73537
66 1 2.14173 36.624 -8.67448
67 1 2.49856 35.7386 -8.7843
68 1 3.00797 34.9828 -8.91486
69 1 3.50639 34.2066 -8.74657
70 1 4.00527 33.5512 -8.29494
71 1 4.41632 32.9023 -7.75086
72 1 4.797 32.1323 -7.35737
73 1 4.83297 31.4003 -6.74501
74 1 5.10691 30.7381 -6.13083
75 1 5.56954 30.055 -5.72432
76 1 6.16522 29.6213 -5.19935
77 1 6.62922 29.0101 -4.65721
78 1 6.96131 28.4076 -4.02675
79 1 7.55686 27.8634 -3.55249
80 1 7.9731 27.0851 -3.22851
81 1 8.29591 26.2572 -3.00523
82 1 8.53319 25.3536 -2.84874
83 1 8.43354 24.4485 -3.09171
84 1 8.36855 23.5593 -3.45984
85 1 7.99662 22.7894 -3.84724
86 1 7.59703 21.9997 -4.16366
87 1 7.04823 21.303 -4.40368
88 1 6.34886 20.6953 -4.4353
89 1 5.93452 20.0016 -4.86568
90 1 5.4496 19.3761 -5.3743
91 1 5.08714 18.7 -5.92416
92 1 4.76528 17.9263 -6.30604
93 1 4.37373 17.2008 -6.72025
94 1 4.00125 16.4453 -7.15301
95 1 3.66565 15.628 -7.55122
96 1 2.98989 15.0275 -7.67944
97 1 2.42538 14.3685 -8.05409
98 1 1.93551 13.9918 -8.79823
99 1 1.5888 13.6195 -9.57084
100 1 1.10845 13.278 -10.3124
101 1 0.589805 13.1561 -11.1604
102 1 -0.0242866 12.8541 -11.7609
103 1 -0.533379 12.4108 -12.4335
104 1 -0.947339 12.0842 -13.2578
105 1 -1.08731 11.9495 -14.1477
106 1 -1.21216 12.0152 -15.0834
107 1 -1.44515 11.9381 -16.0173
108 1 -1.55374 12.0851 -16.9537
109 1 -1.78517 12.062 -17.8436
110 1 -1.88754 11.8069 -18.7692
111 1 -1.7961 11.5474 -19.6565
112 1 -1.54292 11.4307 -20.5384
113 1 -1.43788 11.565 -21.473
114 1 -1.70595 11.8724 -22.3349
115 1 -2.14753 12.079 -23.13
116 1 -2.36748 12.3919 -24.0105
117 1 -2.42887 12.6725 -24.8731
118 1 -2.47983 13.0023 -25.7403
119 1 -2.39844 13.4309 -26.5563
120 1 -2.65041 13.7384 -27.454
121 1 -2.86418 14.0707 -28.3268
122 1 -3.00753 14.2294 -29.2009
123 1 -2.99538 14.5168 -30.1283
124 1 -3.1433 14.8119 -31.0009
125 1 -3.11502 15.1441 -31.9058
126 1 -3.02087 15.477 -32.7504
127 1 -3.23252 15.8739 -33.5512
128 1 -3.67639 15.699 -34.362
ITEM: TIMESTEP
2130000
ITEM: NUMBER OF ATOMS
128
ITEM: BOX BOUNDS mm mm mm
-6.4000000000000000e+01 6.4000000000000000e+01
-6.4000000000000000e+01 6.4000000000000000e+01
-6.4000000000000000e+01 6.4000000000000000e+01
ITEM: ATOMS id type x y z
1 1 -28.3829 31.9153 20.2225
2 1 -27.6122 32.1054 19.8324
3 1 -26.8336 32.4299 19.3452
4 1 -25.9129 32.7081 19.1718
5 1 -25.0138 32.8007 18.8629
6 1 -24.0979 32.7299 18.5801
7 1 -23.312 32.8664 18.2432
8 1 -22.5033 33.0872 17.8714
9 1 -21.6893 33.3541 17.5559
10 1 -20.9908 33.6914 17.0265
11 1 -20.3126 34.05 16.4344
12 1 -19.4959 34.1023 16.0557
13 1 -18.6712 34.044 15.6327
14 1 -17.864 33.9516 15.1351
15 1 -17.1116 33.9034 14.6713
16 1 -16.4775 33.9313 14.0337
17 1 -15.8391 34.1659 13.3543
18 1 -15.176 34.3636 12.7414
19 1 -14.563 34.3506 12.0506
20 1 -13.8368 34.5383 11.5304
21 1 -13.0859 35.0332 11.1328
22 1 -12.5525 35.5067 10.5475
23 1 -12.1787 36.1891 9.96009
24 1 -11.8038 36.841 9.37223
25 1 -11.5291 37.5209 8.78918
26 1 -11.3955 37.9694 8.01977
27 1 -11.1955 38.5146 7.28596
28 1 -11.162 39.198 6.67274
29 1 -11.4885 39.8725 6.06175
30 1 -11.9703 40.5195 5.57532
31 1 -12.281 41.1802 4.97576
32 1 -12.5159 42.046 4.5954
33 1 -12.7552 42.5019 3.81961
34 1 -12.8975 43.0229 3.05537
35 1 -12.8585 43.6077 2.32019
36 1 -12.7217 44.3042 1.70704
37 1 -12.7042 45.0279 1.05794
38 1 -12.6622 45.823 0.603983
39 1 -12.7181 46.4889 -0.0534931
40 1 -12.6893 47.1284 -0.743464
41 1 -12.5324 47.8316 -1.34371
42 1 -12.129 48.1594 -2.14264
43 1 -11.5994 48.2734 -2.89342
44 1 -10.9273 48.3797 -3.5931
45 1 -10.0516 48.4342 -3.90285
46 1 -9.22583 48.7762 -4.3791
47 1 -8.39017 49.0965 -4.56711
48 1 -7.54157 49.107 -4.98122
49 1 -6.67108 48.8039 -5.33095
50 1 -5.82754 48.5168 -5.59895
51 1 -4.92964 48.2242 -5.72097
52 1 -4.20578 47.6687 -5.88464
53 1 -3.51866 47.1193 -6.12051
54 1 -2.70023 46.6043 -6.29018
55 1 -1.914 46.2986 -6.65205
56 1 -1.12421 46.0406 -7.03885
57 1 -0.288872 45.7717 -7.43345
58 1 0.511763 45.2664 -7.72441
59 1 1.30434 44.7976 -7.88673
60 1 1.84729 43.9823 -7.9225
61 1 2.42454 43.2345 -7.9282
62 1 2.76549 42.4157 -7.6606
63 1 3.21175 41.6537 -7.30502
64 1 3.57994 40.9611 -6.85518
65 1 3.80621 40.1487 -6.39639
66 1 4.07459 39.3994 -5.91601
67 1 4.38343 38.5311 -5.62831
68 1 4.7427 37.6758 -5.50681
69 1 5.1853 36.8137 -5.38204
70 1 5.73397 36.1059 -5.14215
71 1 6.19206 35.2557 -5.00629
72 1 6.46269 34.4327 -4.5691
73 1 6.76518 33.6148 -4.21001
74 1 7.14107 32.7853 -4.06309
75 1 7.3523 31.866 -3.9427
76 1 7.35884 30.91 -4.00045
77 1 7.43373 29.9806 -3.8852
78 1 7.5444 29.0544 -3.78644
79 1 7.68613 28.1501 -3.82802
80 1 7.55711 27.1812 -3.7201
81 1 7.42079 26.2521 -3.51956
82 1 7.35666 25.3793 -3.22153
83 1 7.36835 24.684 -2.61886
84 1 7.10614 24.2155 -1.83336
85 1 6.62234 23.7418 -1.13964
86 1 5.84504 23.4231 -0.75192
87 1 4.87322 23.3689 -0.55084
88 1 4.02994 23.0411 -0.39057
89 1 3.35466 22.4637 -0.139647
90 1 2.73595 21.7647 -0.0969086
91 1 2.06587 21.1021 -0.170953
92 1 1.58849 20.2867 -0.397605
93 1 1.2631 19.5417 -0.813269
94 1 1.02588 18.7358 -1.29729
95 1 0.628532 18.3187 -2.05456
96 1 0.415169 17.8968 -2.87569
97 1 0.501017 17.6915 -3.79382
98 1 0.385099 17.726 -4.67086
99 1 0.240819 17.8535 -5.5684
100 1 0.297328 18.0743 -6.46375
101 1 0.230761 18.1353 -7.37876
102 1 0.252072 18.0666 -8.31027
103 1 0.429076 17.7635 -9.23369
104 1 0.569811 17.3301 -10.0218
105 1 0.379858 16.8741 -10.8637
106 1 0.347451 16.5041 -11.7453
107 1 0.289702 16.0631 -12.5446
108 1 0.341218 15.8098 -13.3917
109 1 0.387455 15.6424 -14.3171
110 1 0.233688 15.3141 -15.1738
111 1 0.027598 14.8733 -15.9365
112 1 -0.229308 14.592 -16.7822
113 1 -0.956242 14.341 -17.2895
114 1 -1.57709 14.0734 -17.9703
115 1 -1.90539 13.9024 -18.8524
116 1 -2.42303 13.859 -19.6755
117 1 -2.91207 13.5832 -20.447
118 1 -3.20347 13.4733 -21.3524
119 1 -3.5709 13.3193 -22.2033
120 1 -4.17281 13.1175 -22.9513
121 1 -4.83945 13.0305 -23.6065
122 1 -5.43288 13.0889 -24.3703
123 1 -5.81614 13.1769 -25.2001
124 1 -6.30165 13.5817 -25.9328
125 1 -6.46062 14.1801 -26.6563
126 1 -6.41577 14.7206 -27.4621
127 1 -6.18139 15.0227 -28.3057
128 1 -6.214 15.3991 -29.2098
ITEM: TIMESTEP
2140000
ITEM: NUMBER OF ATOMS
128
ITEM: BOX BOUNDS mm mm mm
-6.4000000000000000e+01 6.4000000000000000e+01
-6.4000000000000000e+01 6.4000000000000000e+01
-6.4000000000000000e+01 6.4000000000000000e+01
ITEM: ATOMS id type x y z
1 1 -28.3107 26.7075 20.5315
2 1 -27.6056 27.2206 20.9077
3 1 -26.7711 27.6129 20.8155
4 1 -25.9833 28.1383 20.694
5 1 -25.2381 28.6524 20.4611
6 1 -24.532 29.2279 20.2345
7 1 -23.741 29.741 19.9545
8 1 -22.9978 30.3264 19.8396
9 1 -22.3087 30.9365 19.6964
10 1 -21.5946 31.5308 19.5257
11 1 -20.8203 32.1209 19.3735
12 1 -20.2565 32.8873 19.3816
13 1 -19.7783 33.7239 19.2108
14 1 -19.4861 34.5585 18.8549
15 1 -18.9584 35.2134 18.4152
16 1 -18.4734 35.8272 17.8851
17 1 -18.4203 36.4561 17.1549
18 1 -18.489 37.1943 16.5815
19 1 -18.4589 37.8111 15.8263
20 1 -18.5009 38.1095 14.9209
21 1 -18.1459 38.1714 14.0301
22 1 -17.6862 38.3124 13.1828
23 1 -17.5709 38.5735 12.274
24 1 -17.4392 38.9144 11.4319
25 1 -17.1651 39.2517 10.5883
26 1 -16.733 39.5464 9.75379
27 1 -16.4893 39.5955 8.81377
28 1 -16.3024 39.4742 7.9408
29 1 -16.0369 39.4325 7.03259
30 1 -15.7455 39.2975 6.08958
31 1 -15.4321 39.2549 5.2177
32 1 -14.7756 39.3037 4.4821
33 1 -14.284 39.2979 3.70327
34 1 -13.9926 39.4986 2.82844
35 1 -13.5106 39.812 2.08868
36 1 -13.2403 40.3065 1.30428
37 1 -12.9508 40.7859 0.516273
38 1 -12.4409 41.1074 -0.202275
39 1 -11.798 41.4843 -0.765535
40 1 -11.32 42.1281 -1.25646
41 1 -10.7189 42.7517 -1.5721
42 1 -10.1525 43.444 -1.89683
43 1 -9.62951 44.2833 -2.13914
44 1 -9.12472 45.0642 -2.3642
45 1 -8.51585 45.753 -2.70304
46 1 -7.79878 46.2485 -3.11126
47 1 -7.1447 46.5511 -3.66059
48 1 -6.53171 46.8203 -4.30475
49 1 -6.09565 47.0138 -5.07653
50 1 -5.46991 47.3742 -5.73189
51 1 -4.93471 47.779 -6.43846
52 1 -4.36861 47.8211 -7.18674
53 1 -4.00758 47.8731 -8.10943
54 1 -3.48992 48.0349 -8.92447
55 1 -2.99476 48.0382 -9.71474
56 1 -2.37228 47.6459 -10.3274
57 1 -1.78266 47.12 -10.7965
58 1 -1.12298 46.4903 -10.9803
59 1 -0.681088 45.6048 -10.9533
60 1 -0.218516 44.8012 -10.7772
61 1 0.434061 44.1036 -10.6589
62 1 0.90494 43.2869 -10.5389
63 1 1.30586 42.4323 -10.555
64 1 1.87844 41.6978 -10.6676
65 1 2.51525 40.9979 -10.7742
66 1 3.11661 40.219 -10.6269
67 1 3.71093 39.4881 -10.4443
68 1 4.35525 38.8216 -10.2385
69 1 4.88037 38.171 -9.71811
70 1 5.02452 37.4871 -9.10175
71 1 4.97809 36.7998 -8.4503
72 1 4.92382 36.1881 -7.7517
73 1 4.62673 35.589 -7.04694
74 1 4.35353 35.0561 -6.29452
75 1 4.24529 34.3545 -5.68469
76 1 4.13839 33.5408 -5.17245
77 1 3.99394 32.6521 -4.84519
78 1 3.82636 31.7407 -4.55143
79 1 3.60772 30.8416 -4.2078
80 1 3.42833 29.9841 -3.9054
81 1 3.3078 29.2737 -3.26468
82 1 3.48666 28.4866 -2.70432
83 1 3.65414 27.6197 -2.38693
84 1 3.89878 26.8066 -1.99279
85 1 4.2649 26.0466 -1.6296
86 1 4.6453 25.289 -1.22609
87 1 4.60859 24.362 -0.925248
88 1 4.53699 23.4746 -0.88779
89 1 4.35026 22.5537 -1.03489
90 1 4.09017 21.6665 -0.965951
91 1 3.68003 20.8228 -1.07798
92 1 3.3826 20.036 -1.55671
93 1 3.21651 19.3212 -2.12908
94 1 3.21624 18.6505 -2.76095
95 1 3.20469 18.2033 -3.57844
96 1 3.3514 17.9899 -4.46475
97 1 3.64593 17.8837 -5.36338
98 1 3.98841 18.0899 -6.23773
99 1 4.12934 18.0564 -7.17935
100 1 4.1768 17.7615 -8.04894
101 1 4.10058 17.6508 -9.04227
102 1 4.06225 17.5848 -10.0245
103 1 3.991 17.4367 -10.9813
104 1 3.939 17.6334 -11.9137
105 1 3.6468 17.9439 -12.7561
106 1 2.89253 18.2151 -13.2663
107 1 2.23876 18.2602 -13.9381
108 1 1.57654 18.4291 -14.5295
109 1 0.98226 18.5259 -15.2545
110 1 0.453659 18.459 -16.0715
111 1 0.117165 18.1469 -16.8744
112 1 -0.188758 17.7897 -17.7425
113 1 -0.484202 17.5333 -18.5839
114 1 -0.666188 17.3175 -19.4505
115 1 -0.794361 17.2713 -20.3561
116 1 -0.792353 17.1251 -21.2838
117 1 -0.829491 16.8557 -22.1623
118 1 -0.759575 16.3951 -22.9798
119 1 -0.569178 15.7537 -23.6775
120 1 -0.512352 15.1072 -24.3811
121 1 -0.600351 14.3261 -24.9292
122 1 -0.770449 13.5237 -25.48
123 1 -0.804221 12.7055 -25.8999
124 1 -1.0506 11.9397 -26.3395
125 1 -1.22872 11.1127 -26.6649
126 1 -1.33576 10.1894 -26.9458
127 1 -1.58414 9.26163 -27.0411
128 1 -1.77227 8.29906 -27.1175
ITEM: TIMESTEP
2150000
ITEM: NUMBER OF ATOMS
128
ITEM: BOX BOUNDS mm mm mm
-6.4000000000000000e+01 6.4000000000000000e+01
-6.4000000000000000e+01 6.4000000000000000e+01
-6.4000000000000000e+01 6.4000000000000000e+01
ITEM: ATOMS id type x y z
1 1 -26.106 32.6653 22.8116
2 1 -25.7651 32.5099 21.9628
3 1 -25.3537 32.4357 21.1322
4 1 -25.2604 32.409 20.2087
5 1 -24.8957 32.5113 19.3336
6 1 -24.4493 32.7116 18.5408
7 1 -23.8502 32.8853 17.9053
8 1 -23.0756 32.8971 17.3471
9 1 -22.446 33.1235 16.7083
10 1 -21.8995 33.6275 16.0989
11 1 -21.3894 33.9775 15.3319
12 1 -20.9415 34.222 14.3712
13 1 -20.5096 34.4999 13.5846
14 1 -20.1735 34.6172 12.7146
15 1 -19.9858 34.9297 11.8473
16 1 -19.7116 35.0861 10.983
17 1 -19.6267 35.4188 10.1185
18 1 -19.7682 36.0238 9.40792
19 1 -20.0158 36.6421 8.78118
20 1 -20.277 37.3382 8.19549
21 1 -20.3221 38.1701 7.72082
22 1 -20.4815 39.0691 7.37832
23 1 -20.4304 39.9729 6.97968
24 1 -20.2253 40.8389 6.66132
25 1 -20.0561 41.7281 6.32831
26 1 -19.8753 42.642 6.08597
27 1 -19.3964 43.4486 5.78126
28 1 -18.8524 44.0741 5.34993
29 1 -18.2099 44.6945 5.04052
30 1 -17.7226 45.4114 4.59981
31 1 -17.1946 46.1341 4.21939
32 1 -16.6004 46.8716 3.99705
33 1 -16.0174 47.5836 3.7665
34 1 -15.6577 48.3574 3.34028
35 1 -15.3888 49.2025 3.10752
36 1 -14.8245 49.8591 2.75119
37 1 -14.1723 50.1034 2.15961
38 1 -13.5741 50.3022 1.40756
39 1 -13.0427 50.3786 0.613456
40 1 -12.5708 50.5362 -0.169064
41 1 -12.2097 50.5347 -1.07068
42 1 -11.9947 50.7486 -1.96696
43 1 -11.6821 50.8595 -2.85782
44 1 -11.2458 50.9121 -3.6568
45 1 -10.6581 50.7522 -4.40958
46 1 -10.1162 50.3896 -5.03984
47 1 -9.59788 49.9471 -5.68963
48 1 -9.15157 49.4338 -6.29303
49 1 -8.54256 48.912 -6.79952
50 1 -7.83443 48.2946 -6.95947
51 1 -7.3082 47.602 -7.25995
52 1 -6.73234 46.8032 -7.3825
53 1 -6.12095 46.0841 -7.37824
54 1 -5.4459 45.4656 -7.32289
55 1 -4.69611 44.8949 -7.30065
56 1 -3.87672 44.3345 -7.32269
57 1 -2.97703 44.246 -7.18688
58 1 -2.11008 43.9407 -7.13624
59 1 -1.34103 43.4556 -7.13235
60 1 -0.505319 43.0623 -7.02917
61 1 0.321479 42.6151 -7.10746
62 1 1.11995 42.1144 -7.09565
63 1 1.95706 41.6649 -7.05583
64 1 2.62372 41.0167 -7.16927
65 1 3.49353 40.6214 -7.17431
66 1 4.20746 40.0867 -7.11078
67 1 4.90904 39.4269 -7.01575
68 1 5.40784 38.65 -6.85211
69 1 5.74829 37.7969 -6.78411
70 1 5.82409 36.8385 -6.68769
71 1 5.90961 35.8929 -6.56502
72 1 5.84752 34.9563 -6.39631
73 1 5.74125 34.0587 -6.59909
74 1 5.69555 33.092 -6.64422
75 1 5.7854 32.1882 -6.58355
76 1 6.2013 31.3616 -6.60508
77 1 6.47004 30.4836 -6.64742
78 1 6.63288 29.5603 -6.66956
79 1 6.51682 28.6375 -6.47951
80 1 6.36936 27.7541 -6.26399
81 1 5.84718 27.0059 -6.08584
82 1 5.34903 26.3469 -5.63622
83 1 4.77711 25.5984 -5.35706
84 1 4.14115 24.9922 -5.05117
85 1 3.58195 24.2145 -4.94719
86 1 3.12988 23.3742 -4.98333
87 1 2.72355 22.5634 -4.83018
88 1 2.23112 21.7465 -4.6539
89 1 1.7774 20.9554 -4.51037
90 1 1.35758 20.1219 -4.26883
91 1 1.1246 19.2708 -3.93062
92 1 1.32971 18.4139 -3.59468
93 1 1.67413 17.5578 -3.52707
94 1 2.1418 16.7287 -3.63221
95 1 2.24179 15.9721 -4.14185
96 1 2.51803 15.1967 -4.65024
97 1 2.65068 14.393 -5.01869
98 1 2.89066 13.6879 -5.559
99 1 3.17104 13.0758 -6.26872
100 1 3.50697 12.5692 -6.9799
101 1 3.671 12.3304 -7.89534
102 1 3.33433 12.297 -8.79637
103 1 3.21339 12.1625 -9.72166
104 1 3.24263 12.1673 -10.6815
105 1 3.31884 11.9692 -11.5428
106 1 3.67262 11.8288 -12.4619
107 1 3.96779 11.9351 -13.3307
108 1 4.24494 12.3205 -14.1385
109 1 4.55796 12.7669 -14.951
110 1 4.71582 13.2433 -15.7847
111 1 5.01253 13.4902 -16.6181
112 1 5.00913 14.0148 -17.4306
113 1 4.8438 14.3921 -18.2267
114 1 4.29265 14.5841 -19.0589
115 1 3.84257 14.6426 -19.8756
116 1 3.63593 14.7384 -20.7872
117 1 3.19903 14.639 -21.6361
118 1 2.77332 14.6821 -22.4674
119 1 2.41199 14.8771 -23.304
120 1 2.14794 15.111 -24.2129
121 1 2.01681 15.0822 -25.1362
122 1 1.88866 15.0332 -26.0378
123 1 1.83642 14.744 -26.9715
124 1 1.90048 14.5483 -27.8907
125 1 1.98912 14.111 -28.7635
126 1 2.1514 13.8308 -29.6823
127 1 2.32587 13.1059 -30.2821
128 1 2.87068 12.405 -30.5757
ITEM: TIMESTEP
2160000
ITEM: NUMBER OF ATOMS
128
ITEM: BOX BOUNDS mm mm mm
-6.4000000000000000e+01 6.4000000000000000e+01
-6.4000000000000000e+01 6.4000000000000000e+01
-6.4000000000000000e+01 6.4000000000000000e+01
ITEM: ATOMS id type x y z
1 1 -23.9175 36.2187 21.4721
2 1 -24.2404 36.1472 20.5843
3 1 -24.3898 35.9205 19.7085
4 1 -24.4963 35.8874 18.7953
5 1 -24.4581 35.7678 17.8621
6 1 -24.3087 35.7718 16.9453
7 1 -24.2947 36.0029 16.0083
8 1 -24.231 36.3736 15.1339
9 1 -24.3031 36.7146 14.2662
10 1 -24.2815 37.08 13.4543
11 1 -24.4728 37.6478 12.6803
12 1 -24.5041 38.1861 11.9005
13 1 -24.6668 38.6214 11.098
14 1 -24.6482 39.2917 10.4779
15 1 -24.6351 39.9208 9.78992
16 1 -24.2087 40.5244 9.21632
17 1 -23.854 41.1366 8.54731
18 1 -23.8449 41.789 7.87707
19 1 -23.7402 42.4075 7.17144
20 1 -23.4919 43.0594 6.53781
21 1 -23.1954 43.6083 5.76676
22 1 -22.8853 44.3698 5.35976
23 1 -22.4908 44.9737 4.75213
24 1 -22.2374 45.4931 3.9662
25 1 -21.7699 45.8889 3.3205
26 1 -21.2537 46.3293 2.70712
27 1 -20.7052 46.9102 2.05847
28 1 -20.1967 47.2199 1.30598
29 1 -19.8016 47.6969 0.589154
30 1 -19.2242 48.1945 0.0367128
31 1 -18.4868 48.4031 -0.494663
32 1 -17.6083 48.1988 -0.735279
33 1 -16.774 48.4033 -1.18974
34 1 -16.0999 48.7374 -1.7548
35 1 -15.4283 49.1323 -2.30934
36 1 -14.6402 49.283 -2.85245
37 1 -13.8147 49.2625 -3.32966
38 1 -12.9354 49.1635 -3.59345
39 1 -12.024 49.3655 -3.62016
40 1 -11.0797 49.4543 -3.68308
41 1 -10.1752 49.4747 -3.84247
42 1 -9.29314 49.3297 -4.04396
43 1 -8.33193 49.2819 -4.16788
44 1 -7.43523 49.2999 -4.37374
45 1 -6.61444 49.2053 -4.76559
46 1 -5.74787 49.2715 -5.06688
47 1 -4.87509 49.0389 -5.28501
48 1 -3.95752 48.7871 -5.3746
49 1 -3.1217 48.4713 -5.54292
50 1 -2.22425 48.1904 -5.60382
51 1 -1.35318 48.0682 -5.89846
52 1 -0.558754 47.9564 -6.30972
53 1 0.17247 48.0715 -6.85486
54 1 0.957031 47.9913 -7.38599
55 1 1.70865 47.6657 -7.94846
56 1 2.36021 47.025 -8.24704
57 1 3.14166 46.6615 -8.58702
58 1 3.88489 46.1802 -8.80379
59 1 4.67767 45.788 -8.85974
60 1 5.44215 45.2641 -8.90342
61 1 6.27485 44.7615 -8.75999
62 1 7.11774 44.4363 -8.57445
63 1 7.92177 43.939 -8.31654
64 1 8.67974 43.3928 -8.2108
65 1 9.35632 42.6586 -8.17778
66 1 9.92253 41.9396 -8.15114
67 1 10.4668 41.1256 -8.09468
68 1 10.8092 40.2672 -8.13739
69 1 11.0159 39.3677 -8.47338
70 1 10.9548 38.452 -8.62856
71 1 10.7417 37.5303 -8.7335
72 1 10.508 36.6743 -8.91624
73 1 10.3281 35.7764 -9.19248
74 1 10.1825 34.9421 -9.64322
75 1 10.0426 34.068 -9.9513
76 1 9.67403 33.2708 -10.177
77 1 9.28926 32.4467 -10.4684
78 1 8.73578 31.702 -10.5222
79 1 8.03521 30.952 -10.4518
80 1 7.3497 30.2903 -10.4926
81 1 6.65951 29.6693 -10.2255
82 1 6.03522 28.9674 -10.1246
83 1 5.34261 28.3615 -9.8973
84 1 4.68546 27.7579 -9.55466
85 1 3.97341 27.289 -9.09916
86 1 3.35667 26.683 -8.63697
87 1 2.88255 25.992 -8.19553
88 1 2.64197 25.2771 -7.74237
89 1 2.44762 24.3721 -7.40513
90 1 2.46806 23.5467 -7.03188
91 1 2.5589 22.6905 -6.65215
92 1 2.63474 21.7178 -6.43994
93 1 2.62638 20.8543 -6.03537
94 1 2.64189 19.954 -5.54125
95 1 2.69462 19.0607 -5.24549
96 1 2.99668 18.1841 -5.13966
97 1 3.28886 17.3014 -5.26501
98 1 3.54283 16.458 -5.56996
99 1 3.52116 15.6426 -5.98355
100 1 3.43131 15.0338 -6.67217
101 1 3.57542 14.4346 -7.41203
102 1 3.71058 13.8861 -8.11861
103 1 3.7232 13.3231 -8.82738
104 1 3.54683 12.8603 -9.58873
105 1 3.25168 12.3744 -10.3183
106 1 2.82518 12.0328 -11.13
107 1 2.50546 11.7046 -11.9187
108 1 2.18759 11.2536 -12.705
109 1 1.7407 10.9564 -13.5501
110 1 1.34628 10.6587 -14.3288
111 1 1.14518 10.4364 -15.1923
112 1 0.768266 9.9575 -15.9309
113 1 0.402696 9.32442 -16.4879
114 1 0.389461 8.51376 -17.0905
115 1 0.610592 7.79087 -17.6669
116 1 1.03749 7.23685 -18.3328
117 1 1.51548 7.04901 -19.202
118 1 2.11684 7.22329 -19.9687
119 1 2.63863 7.35955 -20.7402
120 1 3.16896 7.29251 -21.5141
121 1 3.55836 7.30662 -22.4168
122 1 3.77462 7.472 -23.3509
123 1 3.94349 7.54881 -24.2772
124 1 3.84867 7.51694 -25.2016
125 1 3.89879 7.50252 -26.1094
126 1 4.00875 7.54378 -27.0119
127 1 4.35949 7.68251 -27.8561
128 1 4.75625 8.23401 -28.5337
ITEM: TIMESTEP
2170000
ITEM: NUMBER OF ATOMS
128
ITEM: BOX BOUNDS mm mm mm
-6.4000000000000000e+01 6.4000000000000000e+01
-6.4000000000000000e+01 6.4000000000000000e+01
-6.4000000000000000e+01 6.4000000000000000e+01
ITEM: ATOMS id type x y z
1 1 -24.1359 41.952 18.0493
2 1 -23.5803 41.9632 17.2674
3 1 -23.4205 42.0878 16.2837
4 1 -23.2993 42.1879 15.3428
5 1 -23.2243 42.2025 14.4183
6 1 -22.9729 42.3715 13.5405
7 1 -22.8841 42.3114 12.6057
8 1 -22.7665 42.0745 11.7582
9 1 -22.7056 41.7919 10.8704
10 1 -22.7713 41.4871 10.009
11 1 -22.6463 40.9769 9.25416
12 1 -22.3947 40.5594 8.47661
13 1 -22.0853 40.2354 7.66172
14 1 -21.9345 40.0249 6.75785
15 1 -21.7566 40.0093 5.86814
16 1 -21.3481 40.3588 5.0641
17 1 -20.9789 40.5798 4.13498
18 1 -20.5695 40.7236 3.24389
19 1 -19.8463 40.8205 2.66328
20 1 -19.0949 40.7264 2.01329
21 1 -18.39 40.7627 1.29616
22 1 -17.9266 40.9547 0.502962
23 1 -17.356 41.1556 -0.21739
24 1 -16.6518 41.5519 -0.744732
25 1 -15.9271 41.9668 -1.19041
26 1 -15.0723 42.26 -1.49262
27 1 -14.2078 42.5371 -1.58231
28 1 -13.5017 43.1706 -1.5479
29 1 -13.0867 43.9801 -1.69607
30 1 -12.9227 44.8854 -1.88071
31 1 -12.6503 45.7264 -2.15863
32 1 -12.3998 46.5332 -2.63259
33 1 -12.1216 47.1631 -3.30643
34 1 -11.8202 47.9104 -3.70452