ITEM: TIMESTEP
2840000
ITEM: NUMBER OF ATOMS
128
ITEM: BOX BOUNDS mm mm mm
-6.4000000000000000e+01 6.4000000000000000e+01
-6.4000000000000000e+01 6.4000000000000000e+01
-6.4000000000000000e+01 6.4000000000000000e+01
ITEM: ATOMS id type x y z
1 1 -56.0181 49.2322 -10.3247
2 1 -55.3406 49.3441 -9.71085
3 1 -54.5949 49.5852 -9.12719
4 1 -54.1218 49.5116 -8.29527
5 1 -53.526 49.4384 -7.55659
6 1 -53.0937 49.4501 -6.73432
7 1 -52.4747 49.2661 -6.0728
8 1 -51.8367 49.293 -5.3018
9 1 -50.9853 49.0954 -4.96842
10 1 -50.0947 49.0389 -5.08922
11 1 -49.2274 48.9536 -5.23022
12 1 -48.3389 48.7035 -5.4618
13 1 -47.5296 48.3139 -5.65566
14 1 -46.6489 48.0949 -5.85935
15 1 -45.7891 47.8047 -6.20717
16 1 -44.9322 47.7542 -6.53598
17 1 -44.129 47.6451 -6.05978
18 1 -43.471 47.6767 -5.39559
19 1 -42.7872 47.4647 -4.81929
20 1 -41.9532 47.1706 -4.45148
21 1 -41.2204 46.8335 -3.94926
22 1 -40.5174 46.4343 -3.46504
23 1 -39.7153 46.0581 -3.22597
24 1 -39.0231 45.4704 -2.98044
25 1 -38.2421 45.0578 -2.64448
26 1 -37.9442 44.3971 -2.11356
27 1 -37.2946 43.8369 -1.66533
28 1 -36.433 43.6632 -1.25126
29 1 -35.5884 43.3064 -1.02032
30 1 -34.7807 43.0298 -0.66933
31 1 -34.0177 42.5982 -0.397476
32 1 -33.1135 42.5854 -0.180343
33 1 -32.1632 42.5852 -0.132897
34 1 -31.2048 42.5499 -0.173266
35 1 -30.3739 42.6318 0.292541
36 1 -29.4971 42.3977 0.462848
37 1 -28.8054 41.8403 0.712319
38 1 -28.2302 41.0826 0.904348
39 1 -27.6491 40.4693 1.41757
40 1 -27.2569 39.7253 1.7491
41 1 -27.0708 38.8404 1.87836
42 1 -26.7555 37.9546 1.82427
43 1 -26.4847 37.1482 1.35692
44 1 -26.4613 36.2486 1.17989
45 1 -25.8194 35.4563 1.06845
46 1 -25.2383 34.6811 1.05951
47 1 -24.6223 33.9563 1.32189
48 1 -23.9679 33.4429 1.71279
49 1 -23.223 33.0535 2.06417
50 1 -22.3443 33.2091 2.39118
51 1 -21.4391 32.7913 2.27566
52 1 -20.6892 32.2404 2.15834
53 1 -19.7949 31.8924 1.93116
54 1 -18.9628 31.4903 2.02834
55 1 -18.1365 31.1121 2.23488
56 1 -17.3606 30.5489 2.44978
57 1 -16.4728 30.3183 2.66073
58 1 -15.6865 29.9484 2.19634
59 1 -15.0965 29.2872 1.90871
60 1 -14.4722 28.6045 1.76191
61 1 -13.771 27.9143 1.55836
62 1 -13.437 27.1395 1.2045
63 1 -13.0167 26.4677 0.735778
64 1 -12.5533 25.7514 0.389761
65 1 -12.1413 24.9791 -0.039685
66 1 -11.8551 24.402 -0.690222
67 1 -11.415 23.9721 -1.43055
68 1 -10.8772 23.7129 -2.1679
69 1 -10.5587 23.589 -3.03605
70 1 -10.3679 23.5048 -3.91636
71 1 -10.0386 23.6977 -4.75865
72 1 -9.54702 24.0702 -5.46095
73 1 -8.92546 24.3746 -6.10184
74 1 -8.26421 24.6777 -6.71051
75 1 -7.64703 24.7831 -7.41286
76 1 -6.84963 25.0973 -7.8371
77 1 -6.28513 25.6913 -8.18899
78 1 -5.62081 26.2621 -8.57752
79 1 -4.81792 26.6527 -8.88443
80 1 -4.02013 26.9365 -9.31079
81 1 -3.33846 27.644 -9.40944
82 1 -3.02949 28.5811 -9.42466
83 1 -2.66647 29.4251 -9.6436
84 1 -2.27251 30.3057 -9.52863
85 1 -1.72064 31.0352 -9.36089
86 1 -1.16222 31.7119 -9.12832
87 1 -0.863194 32.119 -8.34902
88 1 -0.819679 32.1033 -7.38402
89 1 -0.480357 32.0509 -6.5146
90 1 -0.402248 32.0963 -5.59698
91 1 -0.0795168 32.1949 -4.72329
92 1 0.133037 32.3804 -3.82447
93 1 0.209672 32.3768 -2.87401
94 1 0.312638 32.2092 -1.91442
95 1 0.111944 32.2149 -0.997008
96 1 -0.159402 32.2162 -0.159754
97 1 -0.898706 32.2597 0.392075
98 1 -1.62245 32.1698 0.922734
99 1 -2.43574 31.8294 1.38297
100 1 -3.23303 31.7748 1.91859
101 1 -4.15807 31.3565 1.96848
102 1 -5.09392 31.171 2.0662
103 1 -5.71719 30.9259 2.71828
104 1 -6.48891 30.4675 3.01273
105 1 -7.22224 29.9582 3.16163
106 1 -7.75456 29.193 3.34494
107 1 -8.34249 28.4827 3.6604
108 1 -9.17566 28.1311 3.70306
109 1 -10.0351 27.7519 3.67552
110 1 -11.0183 27.7232 3.65492
111 1 -11.8802 27.9215 4.02363
112 1 -12.5917 28.0524 4.68697
113 1 -13.1749 28.1249 5.42763
114 1 -14.0396 27.966 5.8258
115 1 -14.7868 27.7769 6.32408
116 1 -15.463 27.6263 6.99092
117 1 -16.1879 27.4257 7.52433
118 1 -16.9245 27.1792 8.13396
119 1 -17.3959 27.3664 8.8847
120 1 -17.7025 27.6653 9.69452
121 1 -18.2155 27.6852 10.4818
122 1 -18.7713 27.4695 11.2241
123 1 -19.3486 27.0926 11.8171
124 1 -19.8631 26.5483 12.3706
125 1 -20.4321 26.3074 13.097
126 1 -20.7023 26.0413 13.954
127 1 -20.8727 25.8298 14.835
128 1 -20.7584 25.7586 15.7974
ITEM: TIMESTEP
2850000
ITEM: NUMBER OF ATOMS
128
ITEM: BOX BOUNDS mm mm mm
-6.4000000000000000e+01 6.4000000000000000e+01
-6.4000000000000000e+01 6.4000000000000000e+01
-6.4000000000000000e+01 6.4000000000000000e+01
ITEM: ATOMS id type x y z
1 1 -46.5838 48.3934 -10.6247
2 1 -46.7197 47.8601 -9.84387
3 1 -46.208 47.6092 -9.11768
4 1 -45.7379 47.5293 -8.33621
5 1 -45.2428 47.3629 -7.54929
6 1 -44.8853 46.8407 -6.72996
7 1 -45.0375 46.4028 -5.95292
8 1 -45.2841 45.8439 -5.25686
9 1 -45.1115 45.6345 -4.35928
10 1 -45.1571 45.7116 -3.36005
11 1 -45.0473 45.6699 -2.46477
12 1 -44.7193 45.7166 -1.59323
13 1 -44.1173 45.6133 -0.820087
14 1 -43.6741 45.6049 -0.00335932
15 1 -43.4239 45.7013 0.899863
16 1 -42.9121 45.7468 1.70556
17 1 -42.3892 45.6713 2.46215
18 1 -41.7039 45.6664 3.20193
19 1 -40.9704 45.7311 3.75012
20 1 -40.1017 45.3814 3.90547
21 1 -39.4936 44.6448 3.88036
22 1 -38.8666 44.0808 3.5173
23 1 -38.0436 43.7337 3.1975
24 1 -37.1712 43.4927 3.00356
25 1 -36.6242 43.2125 2.35072
26 1 -35.9873 43.2851 1.69885
27 1 -35.3455 43.5933 1.09649
28 1 -34.6351 43.5094 0.451702
29 1 -34.0322 43.3371 -0.229811
30 1 -33.205 42.8639 -0.525203
31 1 -32.5518 42.2034 -0.550202
32 1 -31.821 41.5805 -0.616132
33 1 -31.2294 40.88 -0.751184
34 1 -30.8906 40.1139 -1.18328
35 1 -30.6323 39.3489 -1.64826
36 1 -30.2363 38.554 -2.00119
37 1 -29.6086 37.9151 -2.25754
38 1 -29.0451 37.2979 -2.62065
39 1 -28.2469 36.7518 -2.66194
40 1 -27.488 36.2552 -2.50993
41 1 -26.6287 35.9491 -2.44217
42 1 -25.846 35.4521 -2.37745
43 1 -25.0469 35.0847 -2.03304
44 1 -24.2315 34.9001 -1.59132
45 1 -23.411 34.5907 -1.42061
46 1 -22.4828 34.4113 -1.33429
47 1 -21.6514 34.2562 -0.987376
48 1 -20.8193 34.2102 -0.49496
49 1 -20.0013 34.11 -0.141344
50 1 -19.2777 33.6911 0.306816
51 1 -18.4719 33.3102 0.511221
52 1 -17.613 32.963 0.68307
53 1 -16.9626 32.4699 1.20224
54 1 -16.3678 31.788 1.28624
55 1 -15.8914 30.95 1.11095
56 1 -15.7333 30.2075 0.620196
57 1 -15.9932 29.5135 0.104942
58 1 -16.1493 28.6767 -0.302584
59 1 -16.5477 27.9044 -0.657509
60 1 -16.7585 27.5488 -1.5184
61 1 -16.5721 26.9608 -2.22566
62 1 -16.3448 26.5761 -3.09823
63 1 -15.7983 26.5345 -3.88237
64 1 -15.3211 26.3697 -4.73762
65 1 -14.5481 26.1899 -5.19043
66 1 -13.7994 25.9792 -5.70455
67 1 -13.0636 25.87 -6.24691
68 1 -12.4005 25.6334 -6.83973
69 1 -11.569 25.3748 -7.07812
70 1 -10.7699 25.1698 -7.50147
71 1 -9.88098 25.0768 -7.8297
72 1 -9.00278 24.7696 -8.00959
73 1 -8.12504 24.5679 -8.43213
74 1 -7.39059 24.5252 -9.00008
75 1 -6.57561 24.7039 -9.43147
76 1 -5.7837 24.8427 -9.95123
77 1 -4.98633 24.8541 -10.4517
78 1 -4.15777 25.1722 -10.9768
79 1 -3.96608 25.6226 -11.7459
80 1 -3.99624 26.2093 -12.5143
81 1 -3.84671 27.0286 -12.9058
82 1 -4.20185 27.8692 -13.0721
83 1 -4.47604 28.7805 -13.1213
84 1 -4.40981 29.6691 -13.1409
85 1 -4.17714 30.6133 -13.0088
86 1 -3.96155 31.5121 -12.6496
87 1 -4.24733 32.1168 -12.0242
88 1 -4.30452 32.8882 -11.5509
89 1 -4.60961 33.4235 -10.8448
90 1 -4.82848 33.5631 -9.91538
91 1 -4.94791 33.5009 -9.02459
92 1 -5.17482 33.5075 -8.0945
93 1 -5.66277 33.2312 -7.35152
94 1 -6.1839 32.8601 -6.67409
95 1 -6.42509 32.515 -5.84058
96 1 -6.63906 32.1027 -5.0356
97 1 -6.62239 31.6097 -4.2404
98 1 -6.54642 30.7767 -3.64963
99 1 -6.39311 30.0332 -3.09601
100 1 -5.9599 29.2425 -2.72236
101 1 -5.74288 28.5365 -2.12106
102 1 -5.8408 27.8341 -1.52155
103 1 -6.01122 27.2581 -0.77958
104 1 -6.17469 26.8024 0.00396958
105 1 -6.46205 26.2104 0.727871
106 1 -6.34419 25.4456 1.2929
107 1 -6.38059 24.8678 2.06998
108 1 -6.68371 24.5307 2.92834
109 1 -7.0347 24.2616 3.74313
110 1 -7.71736 24.1034 4.46409
111 1 -8.0255 24.4303 5.29458
112 1 -8.55835 24.8446 5.91589
113 1 -8.92477 25.3934 6.59721
114 1 -9.48982 25.7955 7.24852
115 1 -10.2632 26.2278 7.64653
116 1 -11.0882 26.6087 7.89205
117 1 -11.8824 26.8317 8.35796
118 1 -12.3046 27.2178 9.13563
119 1 -12.6703 27.5547 9.92867
120 1 -12.994 27.5843 10.8077
121 1 -13.7286 27.5902 11.4805
122 1 -14.5186 27.6153 11.9225
123 1 -15.1975 27.8838 12.5084
124 1 -15.6151 28.4143 13.1856
125 1 -16.0381 28.9781 13.7844
126 1 -16.6952 29.1795 14.4115
127 1 -17.4978 29.3562 14.7499
128 1 -17.9099 29.8552 15.3893
ITEM: TIMESTEP
2860000
ITEM: NUMBER OF ATOMS
128
ITEM: BOX BOUNDS mm mm mm
-6.4000000000000000e+01 6.4000000000000000e+01
-6.4000000000000000e+01 6.4000000000000000e+01
-6.4000000000000000e+01 6.4000000000000000e+01
ITEM: ATOMS id type x y z
1 1 -54.6077 51.6855 2.12208
2 1 -53.6921 51.8503 2.14674
3 1 -52.8034 51.581 2.00359
4 1 -51.8843 51.2793 1.85423
5 1 -50.9552 51.35 1.79256
6 1 -50.0885 51.275 2.05916
7 1 -49.1317 51.1239 2.02565
8 1 -48.2351 51.0356 1.92753
9 1 -47.2887 51.0135 1.72432
10 1 -46.409 50.7828 1.60641
11 1 -45.6096 50.2596 1.31849
12 1 -44.8654 49.8372 0.99979
13 1 -44.2422 49.2349 0.746796
14 1 -43.6341 48.5953 0.439227
15 1 -42.7545 48.913 0.185243
16 1 -41.8773 49.3232 0.0903622
17 1 -40.9768 49.4628 0.00324725
18 1 -40.0731 49.6283 0.202795
19 1 -39.2567 50.0176 0.30782
20 1 -38.3211 50.0845 0.0651922
21 1 -37.4068 50.0059 -0.163479
22 1 -36.5314 49.9796 -0.393258
23 1 -35.628 49.9254 -0.496937
24 1 -34.8112 49.5139 -0.365234
25 1 -34.3318 48.6996 -0.439691
26 1 -33.8894 47.8891 -0.50768
27 1 -33.21 47.2433 -0.784896
28 1 -32.683 46.5918 -1.30318
29 1 -32.7039 45.6654 -1.50273
30 1 -33.1346 44.9636 -2.02537
31 1 -33.0914 44.3965 -2.73654
32 1 -32.8655 43.6581 -3.29419
33 1 -32.2338 43.0485 -3.60645
34 1 -31.4245 42.6107 -3.88055
35 1 -30.6155 42.1312 -3.99769
36 1 -30.0112 41.4511 -4.10646
37 1 -29.4058 40.8978 -3.69913
38 1 -28.5947 40.8779 -3.23121
39 1 -27.6837 40.6121 -3.01863
40 1 -26.8561 40.1739 -2.92058
41 1 -26.0533 39.7713 -2.93504
42 1 -25.2402 39.3372 -2.79997
43 1 -24.4299 38.8596 -2.86637
44 1 -23.8558 38.1188 -2.66584
45 1 -23.3154 37.5025 -2.23037
46 1 -22.7265 37.0308 -1.68228
47 1 -21.9143 36.6624 -1.35754
48 1 -21.0004 36.4303 -1.20565
49 1 -20.0796 36.3142 -1.2393
50 1 -19.3858 35.7882 -0.928854
51 1 -18.8576 35.0557 -0.927508
52 1 -18.608 34.2435 -1.25608
53 1 -18.7982 33.314 -1.0407
54 1 -18.7253 32.3821 -0.755774
55 1 -19.0504 31.5031 -0.441564
56 1 -19.4598 30.6956 -0.661462
57 1 -19.7419 29.8713 -1.08844
58 1 -20.0162 29.0458 -1.35324
59 1 -20.0791 28.2079 -1.76938
60 1 -19.4637 27.6969 -2.25428
61 1 -18.9135 27.3191 -2.94005
62 1 -18.3665 26.9955 -3.69028
63 1 -18.0206 26.8004 -4.57236
64 1 -17.6458 26.7783 -5.41968
65 1 -17.2115 26.6386 -6.27936
66 1 -16.8074 26.528 -7.08565
67 1 -16.4579 26.3944 -7.96475
68 1 -16.0084 26.5004 -8.86835
69 1 -15.4671 26.3299 -9.62042
70 1 -14.8436 26.1645 -10.2857
71 1 -14.1501 26.2656 -10.9064
72 1 -13.7188 26.3673 -11.7262
73 1 -13.1431 26.5857 -12.5031
74 1 -12.6587 26.5106 -13.261
75 1 -11.9643 26.552 -13.9165
76 1 -11.3756 26.844 -14.5821
77 1 -11.0272 27.3385 -15.2211
78 1 -10.6785 27.6642 -16.0672
79 1 -10.0687 27.9348 -16.7384
80 1 -9.25346 28.2938 -17.1021
81 1 -8.46738 28.7183 -17.317
82 1 -7.67883 29.2511 -17.2393
83 1 -6.80344 29.4622 -17.3151
84 1 -5.87411 29.5981 -17.1368
85 1 -5.23218 29.2532 -16.508
86 1 -4.6648 28.888 -15.8239
87 1 -4.06126 28.6356 -15.2167
88 1 -3.39431 28.221 -14.7025
89 1 -2.75364 27.9503 -14.0777
90 1 -2.18017 27.6977 -13.3545
91 1 -1.78409 27.5769 -12.459
92 1 -1.60536 27.5164 -11.5505
93 1 -1.375 27.6814 -10.668
94 1 -1.49639 27.4187 -9.77993
95 1 -1.6136 27.2722 -8.88572
96 1 -1.38805 27.3504 -7.92256
97 1 -1.25185 27.2752 -7.00864
98 1 -1.19532 27.2693 -6.06851
99 1 -1.3008 27.311 -5.14212
100 1 -1.25222 27.3317 -4.16827
101 1 -1.59846 27.5287 -3.2598
102 1 -2.06376 27.8843 -2.52861
103 1 -2.5681 27.9543 -1.75571
104 1 -3.16031 27.7329 -1.0222
105 1 -3.48005 27.5497 -0.105553
106 1 -3.35732 27.186 0.84317
107 1 -2.96517 26.7997 1.66314
108 1 -2.66717 26.3638 2.47022
109 1 -2.65965 26.0899 3.38663
110 1 -2.88529 25.9557 4.33741
111 1 -3.49337 26.0625 5.0386
112 1 -4.18545 26.4379 5.59241
113 1 -4.89859 26.9395 5.8531
114 1 -5.3576 27.7067 5.62358
115 1 -5.68986 28.5883 5.78168
116 1 -6.12357 29.4507 5.98179
117 1 -6.31996 30.0198 6.71975
118 1 -6.86786 30.6483 7.1273
119 1 -7.55436 31.2125 7.22703
120 1 -8.23131 31.9134 7.2263
121 1 -8.74683 32.694 7.09256
122 1 -8.9285 33.4817 6.67947
123 1 -9.00425 34.1627 5.98457
124 1 -8.84096 34.9113 5.43704
125 1 -8.57707 35.6444 4.88291
126 1 -8.54405 36.2942 4.15402
127 1 -8.47431 37.1949 3.80734
128 1 -8.69363 38.04 3.51112
ITEM: TIMESTEP
2870000
ITEM: NUMBER OF ATOMS
128
ITEM: BOX BOUNDS mm mm mm
-6.4000000000000000e+01 6.4000000000000000e+01
-6.4000000000000000e+01 6.4000000000000000e+01
-6.4000000000000000e+01 6.4000000000000000e+01
ITEM: ATOMS id type x y z
1 1 -55.6923 59.5633 7.36465
2 1 -55.1504 58.9887 6.9157
3 1 -54.3947 58.5893 6.68042
4 1 -53.7462 58.095 6.25839
5 1 -53.2579 57.4512 5.75654
6 1 -52.5155 56.951 5.48622
7 1 -51.7853 56.3385 5.44601
8 1 -51.0705 55.6798 5.55637
9 1 -50.5709 54.8803 5.70299
10 1 -49.9573 54.1566 5.64392
11 1 -49.5102 53.3934 5.3279
12 1 -48.8675 52.6384 5.41696
13 1 -48.0301 52.3204 5.62
14 1 -47.1979 51.833 5.4468
15 1 -46.3579 51.365 5.44305
16 1 -45.3612 51.2913 5.39003
17 1 -44.4842 51.1458 5.31
18 1 -43.6017 51.2001 5.11595
19 1 -42.6895 51.0441 4.84518
20 1 -41.7335 50.9722 4.76848
21 1 -40.7952 50.758 4.67676
22 1 -39.877 50.5938 4.66588
23 1 -38.95 50.3397 4.73021
24 1 -38.0494 50.0872 4.62277
25 1 -37.3705 49.5043 4.31573
26 1 -36.7422 49.0075 3.75463
27 1 -36.0839 48.4487 3.42618
28 1 -35.4354 47.8502 3.09352
29 1 -34.7682 47.2757 2.90667
30 1 -34.3954 46.4757 2.60233
31 1 -33.9953 45.7684 2.16179
32 1 -33.8115 44.8954 1.84468
33 1 -33.3397 44.2302 1.26923
34 1 -33.0499 43.6103 0.641024
35 1 -32.2543 43.3118 0.261006
36 1 -31.4773 43.1465 -0.202839
37 1 -30.8671 42.6547 -0.788065
38 1 -30.0754 42.2522 -1.22594
39 1 -29.2211 41.8242 -1.52219
40 1 -28.4818 41.2479 -1.53117
41 1 -27.7296 40.7753 -1.29832
42 1 -27.0462 40.1755 -1.24538
43 1 -26.377 39.487 -1.09871
44 1 -25.4828 39.1223 -1.06351
45 1 -24.5904 38.8423 -0.98949
46 1 -23.7158 38.4896 -0.834721
47 1 -22.9709 38.0091 -0.60961
48 1 -22.1451 37.4572 -0.708263
49 1 -21.5822 36.6695 -0.94842
50 1 -21.2606 35.8758 -1.22357
51 1 -20.9025 35.4692 -1.96946
52 1 -20.4919 34.9401 -2.62858
53 1 -20.1811 34.2296 -3.17059
54 1 -19.5768 33.7328 -3.6321
55 1 -19.3249 33.235 -4.39362
56 1 -18.9835 32.7766 -5.11251
57 1 -18.6554 32.1621 -5.68294
58 1 -18.5713 31.5816 -6.44202
59 1 -18.4839 30.8599 -7.01598
60 1 -18.4983 29.9881 -7.3657
61 1 -18.4066 29.2142 -7.89606
62 1 -18.26 28.5958 -8.58287
63 1 -17.9177 28.2779 -9.36316
64 1 -17.4025 27.6478 -9.81556
65 1 -16.8139 26.96 -10.1233
66 1 -15.8186 26.7959 -10.0245
67 1 -15.098 26.2069 -9.91555
68 1 -14.3883 25.6323 -10.134
69 1 -13.4709 25.3901 -10.3591
70 1 -12.8602 25.1993 -11.0567
71 1 -11.9264 25.097 -11.2754
72 1 -11.0805 25.2499 -11.709
73 1 -10.2475 25.4065 -12.185
74 1 -9.47026 25.6232 -12.7036
75 1 -8.6878 25.8499 -13.16
76 1 -7.99499 26.099 -13.6836
77 1 -7.47936 26.6637 -14.2267
78 1 -7.09471 27.2178 -14.874
79 1 -6.4741 27.7446 -15.3339
80 1 -5.81865 28.3149 -15.6912
81 1 -5.17403 28.9976 -15.7941
82 1 -4.52728 29.7501 -15.7403
83 1 -3.82861 30.3059 -15.4892
84 1 -3.01927 30.6011 -15.1012
85 1 -2.46869 30.9428 -14.4323
86 1 -1.86297 31.0235 -13.7221
87 1 -1.13113 31.1334 -13.1616
88 1 -0.508404 31.2921 -12.5466
89 1 -0.0113674 31.1454 -11.7916
90 1 0.344804 30.8953 -10.9032
91 1 0.334899 30.9388 -10.0035
92 1 0.307451 30.9718 -9.0541
93 1 0.521232 31.0435 -8.09057
94 1 0.850368 30.9504 -7.22275
95 1 0.869721 31.0109 -6.27374
96 1 1.03243 31.6921 -5.59363
97 1 0.974726 32.1435 -4.77101
98 1 0.871459 32.5753 -3.9914
99 1 0.626553 32.6714 -3.1302
100 1 0.364557 33.1977 -2.37497
101 1 0.0871609 33.6417 -1.57994
102 1 -0.435298 33.854 -0.869053
103 1 -1.1112 34.1575 -0.254934
104 1 -1.97124 33.7297 -0.0490348
105 1 -2.48765 32.957 0.0670111
106 1 -3.09306 32.2084 0.261912
107 1 -3.60295 31.5059 0.657266
108 1 -3.82706 30.7912 1.27004
109 1 -4.04751 30.0904 1.84844
110 1 -4.41581 29.6062 2.58101
111 1 -4.79768 29.2648 3.38471
112 1 -5.43039 29.1391 4.05305
113 1 -6.19546 29.4709 4.46686
114 1 -6.72404 30.0495 5.05992
115 1 -7.21208 30.6982 5.52136
116 1 -7.7735 31.2778 6.05332
117 1 -8.10898 31.8893 6.65642
118 1 -8.40485 32.6157 7.29421
119 1 -8.77529 33.3254 7.79586
120 1 -9.40852 33.9795 8.07712
121 1 -9.90673 34.4153 8.78744
122 1 -10.2479 35.0417 9.36514
123 1 -10.5657 35.8931 9.81442
124 1 -10.6696 36.4215 10.5695
125 1 -10.5449 36.8448 11.3766
126 1 -10.2451 37.1144 12.2092
127 1 -9.84209 37.1509 13.0856
128 1 -9.55265 37.0552 14.052
ITEM: TIMESTEP
2880000
ITEM: NUMBER OF ATOMS
128
ITEM: BOX BOUNDS mm mm mm
-6.4000000000000000e+01 6.4000000000000000e+01
-6.4000000000000000e+01 6.4000000000000000e+01
-6.4000000000000000e+01 6.4000000000000000e+01
ITEM: ATOMS id type x y z
1 1 -52.9404 53.946 7.46472
2 1 -52.2656 53.7441 8.08624
3 1 -51.5032 53.5379 8.64692
4 1 -50.59 53.4246 8.97373
5 1 -49.7013 53.7934 8.93467
6 1 -48.8797 54.2692 8.84172
7 1 -48.0682 54.6461 8.67802
8 1 -47.3644 55.0358 8.20041
9 1 -46.6199 55.4799 7.86217
10 1 -45.9341 55.3945 7.17561
11 1 -45.4278 55.4393 6.3173
12 1 -44.7186 55.4512 5.64757
13 1 -43.9373 55.4533 5.09003
14 1 -43.1258 55.5147 4.53622
15 1 -42.3553 55.7301 4.12324
16 1 -41.7244 55.7871 3.42559
17 1 -41.4772 55.6684 2.48323
18 1 -41.001 55.2912 1.65545
19 1 -40.6145 54.7037 1.03999
20 1 -40.4775 54.2882 0.226359
21 1 -40.045 53.753 -0.419262
22 1 -39.6748 52.9094 -0.837499
23 1 -39.5805 52.0418 -1.20269
24 1 -38.9632 51.3723 -1.56325
25 1 -38.3212 50.7028 -1.51403
26 1 -37.968 49.8213 -1.49047
27 1 -37.6439 48.9474 -1.60122
28 1 -37.461 48.0303 -1.70034
29 1 -37.2493 47.1135 -1.48678
30 1 -36.988 46.2012 -1.45076
31 1 -36.5859 45.3823 -1.22205
32 1 -36.204 44.5587 -0.989817
33 1 -35.8293 43.7646 -0.729955
34 1 -35.5579 42.8803 -0.6677
35 1 -35.3091 41.9705 -0.599043
36 1 -34.7613 41.21 -0.481289
37 1 -34.0173 40.5597 -0.374436
38 1 -33.48 39.9014 -0.93906
39 1 -33.022 39.5199 -1.67732
40 1 -32.4231 39.3083 -2.35264
41 1 -31.7441 38.9479 -2.79617
42 1 -30.8079 38.8078 -2.83591
43 1 -30.2173 38.0507 -3.16786
44 1 -29.6287 37.38 -3.36457
45 1 -28.8259 37.003 -3.64401
46 1 -28.0149 36.5758 -3.99426
47 1 -27.1394 36.4201 -4.29787
48 1 -26.3427 35.9499 -4.63439
49 1 -25.6489 35.3888 -4.94974
50 1 -25.112 34.761 -5.34472
51 1 -24.4353 34.2428 -5.77979
52 1 -23.926 33.8066 -6.46341
53 1 -23.5793 33.4104 -7.18753
54 1 -23.2202 33.1191 -8.04968
55 1 -22.7373 32.6459 -8.66469
56 1 -21.9807 32.1712 -9.11506
57 1 -21.317 31.5168 -9.36614
58 1 -20.6713 30.9266 -9.4749
59 1 -20.0722 30.2502 -9.32849
60 1 -19.3999 29.5399 -9.27431
61 1 -19.0317 28.8071 -8.78039
62 1 -18.3712 28.1658 -8.47855
63 1 -17.7096 27.4703 -8.50652
64 1 -17.0434 26.8115 -8.57651
65 1 -16.2649 26.277 -8.5255
66 1 -15.4845 25.7967 -8.83648
67 1 -14.7044 25.3154 -8.76019
68 1 -13.7677 25.1212 -8.77237
69 1 -12.9536 24.7863 -8.93516
70 1 -12.0828 24.6917 -9.25131
71 1 -11.2772 25.1429 -9.24412
72 1 -10.6648 25.8505 -9.34471
73 1 -10.1369 26.4284 -9.81214
74 1 -9.87466 27.1554 -10.3027
75 1 -9.4671 27.6163 -11.0592
76 1 -8.82469 28.174 -11.4169
77 1 -8.01538 28.5025 -11.7443
78 1 -7.20088 28.7196 -12.1249
79 1 -6.48165 28.5574 -12.6532
80 1 -5.58589 28.2174 -12.7527
81 1 -4.59175 28.1118 -12.6301
82 1 -3.70724 28.3588 -12.3766
83 1 -3.06274 28.9984 -12.1213
84 1 -2.6263 29.7597 -11.756
85 1 -2.51529 30.6405 -11.3797
86 1 -2.23854 31.5092 -11.2059
87 1 -1.54274 31.9537 -10.7179
88 1 -0.679028 32.1072 -10.3483
89 1 0.0908772 32.3481 -9.88221
90 1 0.868219 32.7704 -9.4472
91 1 1.66587 33.2179 -9.06698
92 1 2.08148 34.0504 -8.69779
93 1 2.21445 34.7081 -7.97948
94 1 2.32672 34.9136 -7.05912
95 1 2.2974 34.9414 -6.10683
96 1 2.09321 34.7159 -5.14514
97 1 1.95378 34.8158 -4.20867
98 1 1.56627 34.8735 -3.35177
99 1 1.44595 34.8346 -2.41428
100 1 1.20604 34.5079 -1.57468
101 1 0.791274 34.0505 -0.827762
102 1 0.318862 33.4383 -0.300936
103 1 -0.588817 33.0733 0.0476714
104 1 -1.46524 33.0202 0.435494
105 1 -2.12362 32.4954 0.968542
106 1 -2.60997 31.7934 1.44813
107 1 -3.30724 31.5837 2.2149
108 1 -4.07153 31.6654 2.7788
109 1 -4.62804 31.2313 3.4155
110 1 -4.91784 31.1109 4.30214
111 1 -5.29828 31.2193 5.14043
112 1 -5.91207 31.3522 5.80782
113 1 -5.93282 31.3602 6.76531
114 1 -5.83589 31.1654 7.70704
115 1 -5.90282 31.2726 8.61364
116 1 -6.17556 31.859 9.29484
117 1 -6.51292 32.4544 9.93848
118 1 -6.7014 33.0456 10.5891
119 1 -7.34413 33.3468 11.2593
120 1 -7.93635 33.748 11.8287
121 1 -8.62146 33.7667 12.4093
122 1 -9.23289 33.8593 13.1428
123 1 -9.74246 33.8661 13.9251
124 1 -10.0571 33.7326 14.8032
125 1 -10.2042 33.4956 15.6402
126 1 -10.3141 32.9068 16.3625
127 1 -10.6087 32.3615 17.0964
128 1 -10.5195 31.7844 17.8869
ITEM: TIMESTEP
2890000
ITEM: NUMBER OF ATOMS
128
ITEM: BOX BOUNDS mm mm mm
-6.4000000000000000e+01 6.4000000000000000e+01
-6.4000000000000000e+01 6.4000000000000000e+01
-6.4000000000000000e+01 6.4000000000000000e+01
ITEM: ATOMS id type x y z
1 1 -54.3876 55.7388 7.56426
2 1 -53.5046 55.5926 7.23551
3 1 -52.8509 55.2752 6.70322
4 1 -51.9749 55.3328 6.30143
5 1 -51.3137 55.5381 5.66518
6 1 -50.7947 55.8195 4.94715
7 1 -50.5318 56.4685 4.33597
8 1 -49.8438 56.7545 3.77916
9 1 -49.3351 57.2302 3.15456
10 1 -48.8322 57.7792 2.59385
11 1 -48.263 58.3587 2.04257
12 1 -47.7742 58.6121 1.33818
13 1 -47.2689 58.6982 0.545642
14 1 -46.643 58.3963 -0.101936
15 1 -45.8738 58.0301 -0.425035
16 1 -45.0014 57.8025 -0.825988
17 1 -44.228 57.6315 -1.33741
18 1 -43.4322 57.2279 -1.71229
19 1 -42.6459 56.6883 -1.80795
20 1 -41.9205 56.1368 -1.82449
21 1 -41.5018 55.3197 -1.64018
22 1 -40.8008 54.6411 -1.54211
23 1 -40.1195 54.1424 -1.22206
24 1 -39.5933 53.5439 -0.817904
25 1 -39.0005 52.9569 -0.466046
26 1 -39.0142 52.0218 -0.21285
27 1 -38.8422 51.1142 -0.0709249
28 1 -38.5679 50.1955 -0.184535
29 1 -38.2868 49.2685 -0.241541
30 1 -38.1213 48.3465 -0.336832
31 1 -37.8885 47.4534 -0.617513
32 1 -37.5648 46.6125 -0.799533
33 1 -37.2609 45.7797 -0.745282
34 1 -36.7787 44.9286 -0.757366
35 1 -36.4241 44.0472 -0.832252
36 1 -36.1801 43.174 -1.0059
37 1 -36.146 42.3479 -1.42061
38 1 -36.0034 41.6395 -1.9549
39 1 -35.7592 41.0635 -2.61705
40 1 -35.7231 40.1784 -2.98306
41 1 -35.9534 39.333 -3.34207
42 1 -35.8837 38.4102 -3.64418
43 1 -35.8764 37.5353 -3.88817
44 1 -35.4724 36.7993 -4.36886
45 1 -34.8709 36.1814 -4.80923
46 1 -34.2258 35.5921 -5.36503
47 1 -33.6675 35.127 -5.90064
48 1 -33.1803 34.4793 -6.36882
49 1 -32.6147 33.7829 -6.61629
50 1 -31.9528 33.0651 -6.744
51 1 -31.0694 32.7482 -7.0309
52 1 -30.223 32.4995 -7.24326
53 1 -29.3146 32.3635 -7.4856
54 1 -28.4277 32.1774 -7.77891
55 1 -27.5538 31.806 -7.93802
56 1 -26.7037 31.5199 -8.27435
57 1 -25.9528 31.0084 -8.51357
58 1 -25.0367 30.9838 -8.57339
59 1 -24.1579 30.6459 -8.47532
60 1 -23.3098 30.299 -8.5168
61 1 -22.4204 30.0588 -8.76109
62 1 -21.4979 30.1402 -8.9769
63 1 -20.6505 30.2808 -9.30244
64 1 -19.8185 30.6773 -9.40187
65 1 -18.88 30.68 -9.51965
66 1 -17.9844 30.7918 -9.69749
67 1 -17.08 30.8665 -9.92703
68 1 -16.2113 31.147 -10.1015
69 1 -15.3841 31.4265 -10.4754
70 1 -14.5193 31.7259 -10.776
71 1 -13.7186 31.9624 -11.2555
72 1 -12.9448 32.3077 -11.5789
73 1 -12.1957 32.6676 -12.0765
74 1 -11.5124 33.0242 -12.5489
75 1 -11.0767 33.2774 -13.3674
76 1 -10.3569 33.3021 -13.9942
77 1 -9.65409 33.4612 -14.5723
78 1 -8.80295 33.6156 -14.9584
79 1 -7.91746 33.5758 -15.3137
80 1 -7.08386 33.8748 -15.6206
81 1 -6.23195 34.2773 -15.5259
82 1 -5.29828 34.36 -15.9042
83 1 -4.5398 34.8559 -15.9631
84 1 -3.70331 35.225 -16.0025
85 1 -2.88525 35.5541 -16.2262
86 1 -2.18301 35.9571 -15.769
87 1 -1.68983 36.1841 -15.0048
88 1 -1.13562 36.1882 -14.2371
89 1 -0.642769 36.3163 -13.4368
90 1 -0.470061 36.4896 -12.4598
91 1 -0.285514 36.509 -11.5003
92 1 -0.1201 36.6356 -10.5862
93 1 0.0654987 36.7463 -9.61342
94 1 0.257228 36.6866 -8.71544
95 1 0.476461 36.6675 -7.75287
96 1 0.745626 36.574 -6.85986
97 1 1.18303 36.2314 -6.15435
98 1 1.52649 35.7545 -5.31741
99 1 2.15215 35.3028 -4.8066
100 1 2.66148 35.0167 -4.07268
101 1 3.16343 34.9862 -3.34407
102 1 3.52118 35.1079 -2.44114
103 1 3.7884 35.0221 -1.47205
104 1 3.99244 34.9158 -0.563971
105 1 4.15265 34.8749 0.350248
106 1 3.85338 34.9107 1.22907
107 1 3.75216 34.482 2.02512
108 1 3.78609 34.1994 2.8953
109 1 3.45349 33.7116 3.63553
110 1 2.92924 33.4955 4.4028
111 1 2.23072 33.4867 5.04187
112 1 1.40519 33.2628 5.44775
113 1 0.612128 33.0953 5.91532
114 1 -0.0921601 33.3983 6.46117
115 1 -0.737051 33.2688 7.1592
116 1 -1.6619 33.3015 7.43421
117 1 -2.50739 33.2123 7.78663
118 1 -3.2513 32.8214 8.06466
119 1 -4.11159 32.8038 8.45866
120 1 -5.02408 32.9677 8.6817
121 1 -5.85579 33.3452 8.85045
122 1 -6.76691 33.4546 8.91498
123 1 -7.67166 33.7984 9.05653
124 1 -8.4195 34.2674 9.32062
125 1 -9.05551 34.9124 9.52478
126 1 -9.50387 35.7105 9.64725
127 1 -9.74823 36.6515 9.74988
128 1 -10.399 37.2078 9.46804
ITEM: TIMESTEP
2900000
ITEM: NUMBER OF ATOMS
128
ITEM: BOX BOUNDS mm mm mm
-6.4000000000000000e+01 6.4000000000000000e+01
-6.4000000000000000e+01 6.4000000000000000e+01
-6.4000000000000000e+01 6.4000000000000000e+01
ITEM: ATOMS id type x y z
1 1 -54.3147 61.2049 7.40457
2 1 -53.8434 60.5358 6.99307
3 1 -53.2487 59.8749 6.80525
4 1 -52.8693 59.058 6.47767
5 1 -52.3437 58.5297 5.97484
6 1 -51.4254 58.2012 5.81088
7 1 -50.6214 57.8048 5.45483
8 1 -49.8752 58.126 4.94618
9 1 -49.1588 58.6316 4.5348
10 1 -48.3816 59.1903 4.40822
11 1 -47.5776 59.7156 4.41143
12 1 -46.8194 59.9825 3.92472
13 1 -45.9751 60.3925 3.57934
14 1 -44.9424 60.3572 3.64144
15 1 -43.9429 60.1435 3.4418
16 1 -43.0825 59.7714 3.31436
17 1 -42.2399 59.3661 2.9675
18 1 -41.4916 58.8108 2.7982
19 1 -40.9438 58.1088 2.51864
20 1 -40.6349 57.285 2.12581
21 1 -40.112 56.7434 1.5587
22 1 -39.8728 55.9444 1.01929
23 1 -39.5744 55.1523 0.709875
24 1 -39.6203 54.3592 0.119397
25 1 -39.5856 53.5264 -0.260012
26 1 -39.4184 52.6563 -0.17118
27 1 -39.246 51.761 -0.234506
28 1 -38.977 50.8667 -0.431022
29 1 -38.521 50.0722 -0.381942
30 1 -38.0083 49.2089 -0.331523
31 1 -37.7748 48.2245 -0.266842
32 1 -37.3343 47.4515 -0.318229
33 1 -36.7715 46.7976 -0.719473
34 1 -35.9064 46.5081 -0.725838
35 1 -35.0866 45.9498 -0.596593
36 1 -34.2036 45.5887 -0.540879
37 1 -33.4398 45.1145 -0.363876
38 1 -32.6372 44.6766 -0.517737
39 1 -31.7927 44.1652 -0.551244
40 1 -31.29 43.3916 -0.581621
41 1 -30.5749 42.8325 -0.890524
42 1 -29.8552 42.298 -1.04297
43 1 -29.1828 41.6787 -1.20489
44 1 -28.3703 41.3642 -1.54322
45 1 -27.4324 41.2538 -1.55686
46 1 -26.6161 40.7772 -1.72649
47 1 -26.0671 40.0075 -1.83548
48 1 -25.2844 39.5338 -1.99299
49 1 -24.7779 38.7647 -2.18984
50 1 -24.4496 38.063 -2.69236
51 1 -24.5989 37.2941 -3.18979
52 1 -24.5426 36.6813 -3.93637
53 1 -24.2879 36.2177 -4.69754
54 1 -23.9999 35.6409 -5.43413
55 1 -23.9786 35.0284 -6.11553
56 1 -23.9005 34.4631 -6.82158
57 1 -23.4584 34.0786 -7.50695
58 1 -22.9771 33.7368 -8.17548
59 1 -22.5008 33.4442 -8.93005
60 1 -21.8336 33.3547 -9.6246
61 1 -21.0439 33.2012 -10.1327
62 1 -20.3567 32.8682 -10.6464
63 1 -19.777 32.5006 -11.33
64 1 -18.9475 32.1755 -11.7202
65 1 -18.1468 31.8213 -12.0176
66 1 -17.2094 31.7332 -11.9634
67 1 -16.2722 31.7674 -11.8048
68 1 -15.3542 31.7805 -11.6218
69 1 -14.4003 31.7637 -11.4086
70 1 -13.4563 31.6695 -11.2033
71 1 -12.5248 31.4979 -11.1249
72 1 -11.5994 31.5334 -11.0266
73 1 -10.6737 31.6193 -10.8662
74 1 -9.9806 32.127 -10.6197
75 1 -9.12874 32.6125 -10.8348
76 1 -8.35188 33.0205 -11.1023
77 1 -7.58589 33.2995 -11.4556
78 1 -6.85678 33.6611 -11.9412
79 1 -6.17893 33.9868 -12.5312
80 1 -5.54763 34.2071 -13.234
81 1 -4.86438 34.2636 -13.8805
82 1 -4.31683 34.0872 -14.6012
83 1 -3.58077 34.268 -15.1818
84 1 -2.672 34.2015 -15.5431
85 1 -1.96551 33.9369 -15.9889
86 1 -1.44982 33.3825 -16.5017
87 1 -0.806783 32.7499 -16.3546
88 1 -0.245888 32.0606 -16.2936
89 1 0.23828 31.3179 -15.9036
90 1 0.771183 30.9315 -15.1825
91 1 1.26726 30.4934 -14.5635
92 1 1.72032 30.4388 -13.6685
93 1 2.13947 30.3406 -12.8563
94 1 2.06796 30.4638 -11.9222
95 1 2.10953 30.7799 -11.0149
96 1 2.03846 31.036 -10.1321
97 1 1.8278 31.3492 -9.27361
98 1 1.53236 31.3655 -8.37286
99 1 1.45863 31.1747 -7.48816
100 1 1.2522 31.5536 -6.65121
101 1 1.13376 31.8644 -5.72345
102 1 0.999657 31.7643 -4.80958
103 1 0.781413 31.8155 -3.85868
104 1 0.516759 31.9274 -2.95269
105 1 0.114606 32.0152 -2.12819
106 1 -0.202691 31.8345 -1.22214
107 1 -0.41549 31.8268 -0.284097
108 1 -0.677875 31.3289 0.530039
109 1 -0.793841 30.9113 1.3478
110 1 -0.49142 30.6064 2.19629
111 1 -0.428294 30.7069 3.14325
112 1 -0.22779 30.7524 4.05265
113 1 0.146337 31.0056 4.90566
114 1 0.537744 31.8081 5.23745
115 1 0.571496 32.7337 5.33122
116 1 0.728479 33.6677 5.45899
117 1 0.224147 34.3964 5.77045
118 1 -0.013383 35.143 6.25055
119 1 0.0221473 35.9591 6.77008
120 1 0.0625591 36.5221 7.49223
121 1 0.0357718 37.0597 8.23171
122 1 0.218448 37.6851 8.91929
123 1 0.102517 38.2019 9.64474
124 1 -0.0768837 38.9337 10.2417
125 1 0.11324 39.8609 10.3663
126 1 0.266932 40.4104 11.0788
127 1 0.238295 41.0569 11.7519
128 1 -0.0697013 41.4926 12.5398
ITEM: TIMESTEP
2910000
ITEM: NUMBER OF ATOMS
128
ITEM: BOX BOUNDS mm mm mm
-6.4000000000000000e+01 6.4000000000000000e+01
-6.4000000000000000e+01 6.4000000000000000e+01
-6.4000000000000000e+01 6.4000000000000000e+01
ITEM: ATOMS id type x y z
1 1 -43.5537 61.6393 15.7547
2 1 -42.7488 61.3078 15.5691
3 1 -42.0435 61.0434 15.0535
4 1 -41.4351 61.0305 14.3128
5 1 -40.861 60.8017 13.6217
6 1 -40.6035 60.5026 12.7628
7 1 -40.1524 60.6103 11.917
8 1 -39.8021 60.8739 11.0821
9 1 -39.5998 60.7302 10.1634
10 1 -39.5691 60.3067 9.33359
11 1 -39.5802 59.7391 8.50414
12 1 -39.4528 59.1757 7.74855
13 1 -39.0284 58.8509 6.98675
14 1 -38.6588 58.448 6.1935
15 1 -38.5781 58.0364 5.35044
16 1 -38.6272 57.4098 4.61442
17 1 -38.3054 57.1952 3.77515
18 1 -37.92 56.8246 2.97187
19 1 -37.4156 56.6557 2.20414
20 1 -37.0322 56.437 1.36099
21 1 -36.6779 56.1667 0.446012