ITEM: TIMESTEP
2110000
ITEM: NUMBER OF ATOMS
128
ITEM: BOX BOUNDS mm mm mm
-6.4000000000000000e+01 6.4000000000000000e+01
-6.4000000000000000e+01 6.4000000000000000e+01
-6.4000000000000000e+01 6.4000000000000000e+01
ITEM: ATOMS id type x y z
1 1 -27.6418 19.5565 15.1927
2 1 -27.2052 20.1178 14.452
3 1 -26.667 20.6441 13.786
4 1 -26.2344 21.2013 13.1712
5 1 -25.8046 21.8608 12.7045
6 1 -25.4774 22.5531 12.0966
7 1 -25.2921 23.252 11.4988
8 1 -25.0826 23.979 10.9678
9 1 -24.7182 24.7744 10.6625
10 1 -24.3266 25.5851 10.3955
11 1 -23.988 26.4263 10.1699
12 1 -23.4713 27.2571 10.0934
13 1 -22.9832 28.0365 9.80303
14 1 -22.5766 28.8654 9.50327
15 1 -22.2134 29.6873 9.19743
16 1 -21.8398 30.5767 8.97109
17 1 -21.4449 31.2764 8.51197
18 1 -20.977 32.0206 8.12137
19 1 -20.5637 32.7822 7.78674
20 1 -20.3252 33.6381 7.46216
21 1 -20.0012 34.5079 7.36772
22 1 -19.662 35.3749 7.24516
23 1 -19.2859 36.1856 7.29777
24 1 -18.8789 37.0131 7.40626
25 1 -18.5498 37.8957 7.50836
26 1 -18.2425 38.7878 7.6248
27 1 -17.8596 39.6243 7.47261
28 1 -17.6081 40.561 7.47387
29 1 -17.2551 41.3913 7.44339
30 1 -16.7902 42.2008 7.33421
31 1 -16.2864 42.8898 6.94025
32 1 -15.859 43.5224 6.43584
33 1 -15.4036 44.0829 5.85936
34 1 -14.8995 44.7203 5.34326
35 1 -14.4416 45.3363 4.77603
36 1 -14.0291 45.9357 4.15824
37 1 -13.6153 46.5279 3.56873
38 1 -13.1785 47.2035 3.08322
39 1 -12.6035 47.7706 2.50478
40 1 -12.0829 48.1877 1.85564
41 1 -11.5385 48.2814 1.15706
42 1 -10.783 48.4402 0.610967
43 1 -9.94515 48.3161 0.273021
44 1 -9.0599 48.032 0.0271686
45 1 -8.16797 48.1308 -0.2848
46 1 -7.29405 48.2219 -0.661166
47 1 -6.43485 48.0682 -0.943423
48 1 -5.57575 47.7657 -1.16899
49 1 -4.83657 47.1747 -1.48726
50 1 -4.0536 46.6798 -1.59026
51 1 -3.39938 45.9458 -1.71446
52 1 -2.82991 45.1557 -1.61325
53 1 -2.32942 44.3297 -1.53162
54 1 -1.76004 43.622 -1.18152
55 1 -1.05347 42.992 -0.983745
56 1 -0.568939 42.1904 -0.857417
57 1 -0.22345 41.3506 -0.620606
58 1 -0.0805646 40.4144 -0.459157
59 1 0.0892452 39.5056 -0.199641
60 1 0.315855 38.5879 0.130858
61 1 0.493889 37.7509 0.400955
62 1 0.651579 36.8948 0.62839
63 1 0.74262 36.0117 0.948888
64 1 0.992085 35.2973 1.47194
65 1 1.35007 34.4787 1.88866
66 1 1.65456 33.7038 2.30953
67 1 2.07459 32.9924 2.74195
68 1 2.63192 32.256 2.86306
69 1 3.17297 31.5144 2.90346
70 1 3.60823 30.6539 3.00491
71 1 4.02176 29.8717 2.97489
72 1 4.37667 28.9383 2.74058
73 1 4.57631 27.9928 2.67956
74 1 4.8866 27.0735 2.56726
75 1 5.05108 26.1655 2.44815
76 1 5.3064 25.2833 2.37682
77 1 5.56444 24.3926 2.44704
78 1 5.83675 23.5185 2.58789
79 1 6.19163 22.634 2.75524
80 1 6.55943 21.7399 2.82698
81 1 6.9526 20.9669 2.46188
82 1 7.25032 20.2032 1.99145
83 1 7.47078 19.4641 1.3387
84 1 7.76889 18.8667 0.713901
85 1 8.13379 18.2045 0.109512
86 1 8.23511 17.6692 -0.607851
87 1 8.30176 16.9848 -1.27926
88 1 8.51387 16.2508 -1.94602
89 1 8.60318 15.484 -2.49918
90 1 8.63712 14.7393 -3.00743
91 1 8.50031 13.9355 -3.48009
92 1 8.19521 13.1926 -3.97084
93 1 7.6597 12.4482 -4.34391
94 1 7.14721 11.7883 -4.72073
95 1 6.50642 11.1913 -5.02878
96 1 5.92746 10.6086 -5.50859
97 1 5.24435 10.151 -6.02614
98 1 4.49046 9.58538 -6.1744
99 1 3.73936 9.23369 -6.59585
100 1 2.92915 9.10441 -7.21129
101 1 2.29237 9.01448 -7.90753
102 1 1.71662 8.97896 -8.69957
103 1 1.15113 8.79836 -9.40866
104 1 0.697615 8.77181 -10.2834
105 1 0.37436 8.83013 -11.146
106 1 0.112598 9.01175 -12.0629
107 1 -0.206437 9.21751 -12.9364
108 1 -0.42159 9.37342 -13.8362
109 1 -0.624674 9.39562 -14.7728
110 1 -0.985296 9.59947 -15.6554
111 1 -1.24464 9.8558 -16.5377
112 1 -1.3941 10.0871 -17.4328
113 1 -1.70819 10.1692 -18.3723
114 1 -1.95067 10.1181 -19.2984
115 1 -2.1717 10.086 -20.2215
116 1 -2.59598 10.0205 -21.0227
117 1 -3.08008 10.1516 -21.9294
118 1 -3.55126 10.5383 -22.7137
119 1 -3.91969 10.8766 -23.4639
120 1 -4.59277 11.2172 -24.0793
121 1 -5.14605 11.5344 -24.7883
122 1 -5.79638 11.9626 -25.4045
123 1 -6.35254 12.2638 -26.0286
124 1 -6.77218 12.6641 -26.7648
125 1 -7.32035 12.9269 -27.4229
126 1 -7.90744 13.0848 -28.1399
127 1 -8.41973 13.337 -28.9086
128 1 -8.85574 13.6628 -29.7005
ITEM: TIMESTEP
2120000
ITEM: NUMBER OF ATOMS
128
ITEM: BOX BOUNDS mm mm mm
-6.4000000000000000e+01 6.4000000000000000e+01
-6.4000000000000000e+01 6.4000000000000000e+01
-6.4000000000000000e+01 6.4000000000000000e+01
ITEM: ATOMS id type x y z
1 1 -31.918 23.1109 9.80444
2 1 -30.985 23.218 9.81132
3 1 -30.0629 23.4137 9.82644
4 1 -29.1126 23.7411 9.86468
5 1 -28.3435 24.2473 9.84831
6 1 -27.5122 24.6904 9.93126
7 1 -26.7575 25.2355 10.1501
8 1 -26.0407 25.6405 10.5072
9 1 -25.2315 26.0463 10.7255
10 1 -24.4778 26.5495 10.8858
11 1 -23.6735 27.0321 11.0065
12 1 -23.0454 27.7863 11.0097
13 1 -22.4991 28.5768 11.0531
14 1 -22.0336 29.3291 10.847
15 1 -21.774 30.0099 10.2956
16 1 -21.5166 30.7229 9.71887
17 1 -21.1595 31.4025 9.1796
18 1 -20.7875 32.123 8.7032
19 1 -20.6643 32.8942 8.21331
20 1 -20.5688 33.7488 7.78889
21 1 -20.6655 34.65 7.52042
22 1 -20.7272 35.5333 7.0502
23 1 -20.6551 36.346 6.54686
24 1 -20.3438 37.0604 6.02686
25 1 -19.8873 37.7007 5.54066
26 1 -19.5307 38.4396 5.12218
27 1 -19.2501 39.1829 4.63887
28 1 -18.9594 39.9949 4.24908
29 1 -18.6128 40.813 3.9108
30 1 -18.1459 41.5089 3.51098
31 1 -17.4717 42.0764 3.21039
32 1 -16.7781 42.676 2.95519
33 1 -16.04 43.2146 2.82381
34 1 -15.2461 43.7233 2.6782
35 1 -14.449 43.9763 2.3111
36 1 -13.6613 43.9584 1.80627
37 1 -12.8324 44.1169 1.41068
38 1 -12.0709 44.2117 0.910699
39 1 -11.1957 44.4714 0.615607
40 1 -10.3054 44.5926 0.415351
41 1 -9.36264 44.5126 0.280371
42 1 -8.4751 44.4285 -0.00227702
43 1 -7.58573 44.4655 -0.280754
44 1 -6.69231 44.3217 -0.396153
45 1 -5.7345 44.059 -0.449799
46 1 -4.87073 43.8657 -0.486182
47 1 -3.96273 43.6357 -0.440307
48 1 -3.04475 43.4796 -0.250807
49 1 -2.16786 43.1968 -0.133002
50 1 -1.3189 42.7657 0.0849278
51 1 -0.428053 42.4729 0.346452
52 1 0.441736 42.0441 0.694725
53 1 1.16739 41.7275 1.06412
54 1 1.93571 41.3513 1.44688
55 1 2.57086 40.6994 1.81174
56 1 3.15454 40.0007 2.03627
57 1 3.7282 39.2947 1.96435
58 1 4.31197 38.5418 2.03995
59 1 4.93835 37.8586 2.11448
60 1 5.72122 37.2501 2.20256
61 1 6.36446 36.5094 2.1531
62 1 6.82205 35.6882 2.39537
63 1 7.3411 34.992 2.72415
64 1 7.99172 34.3694 3.00827
65 1 8.63127 33.7289 3.37881
66 1 9.21712 33.0568 3.59066
67 1 9.69738 32.3005 3.89989
68 1 10.0933 31.5788 4.36283
69 1 10.4751 30.8567 4.78652
70 1 10.7729 29.9415 5.06807
71 1 11.0354 29.041 5.20528
72 1 11.1846 28.0807 5.24053
73 1 11.5489 27.2594 5.53598
74 1 11.8068 26.3437 5.57758
75 1 12.0925 25.4203 5.6441
76 1 12.3544 24.5679 5.71371
77 1 12.5997 23.6825 5.83972
78 1 12.9411 22.8423 5.73105
79 1 13.1535 21.9069 5.59723
80 1 13.3897 20.9983 5.39566
81 1 13.5116 20.0874 5.15737
82 1 13.4155 19.2154 4.81833
83 1 13.3705 18.3822 4.33768
84 1 13.2609 17.6058 3.84293
85 1 13.405 16.7036 3.51183
86 1 13.4578 15.8747 3.14389
87 1 13.3022 15.0063 2.82167
88 1 13.0321 14.1686 2.411
89 1 12.9252 13.3411 1.94594
90 1 13.0208 12.5094 1.42443
91 1 12.8607 11.6777 0.985012
92 1 12.8929 10.8139 0.551232
93 1 12.5904 10.0161 -0.0237263
94 1 12.1461 9.37895 -0.554905
95 1 11.6828 8.78773 -1.17925
96 1 11.2296 8.46154 -1.90787
97 1 10.7722 8.20473 -2.66347
98 1 10.3529 7.86836 -3.47287
99 1 9.83435 7.51831 -4.18415
100 1 9.29207 7.39374 -4.89995
101 1 8.81787 7.45954 -5.69531
102 1 8.19875 7.68668 -6.34065
103 1 7.61517 8.11232 -6.91296
104 1 6.92875 8.51304 -7.47586
105 1 6.2854 8.81206 -8.0062
106 1 5.48884 9.23428 -8.37941
107 1 4.79315 9.70338 -8.82677
108 1 4.01661 10.0566 -9.25306
109 1 3.23937 10.4342 -9.66543
110 1 2.44616 10.815 -10.0107
111 1 1.76306 11.1824 -10.5485
112 1 1.10423 11.279 -11.2783
113 1 0.602301 11.4258 -12.0065
114 1 0.305901 11.5059 -12.8913
115 1 0.0615505 11.6333 -13.7761
116 1 -0.192735 11.8085 -14.7167
117 1 -0.394897 11.9387 -15.6385
118 1 -0.558439 12.0441 -16.5307
119 1 -0.780848 12.0401 -17.4926
120 1 -1.00425 12.1433 -18.4009
121 1 -1.2504 12.383 -19.3084
122 1 -1.45618 12.6997 -20.133
123 1 -1.72032 13.0881 -20.9058
124 1 -2.01665 13.5712 -21.6564
125 1 -2.18949 14.1516 -22.4127
126 1 -2.39416 14.7358 -23.113
127 1 -2.49084 15.1477 -23.9281
128 1 -2.6653 15.6439 -24.7178
ITEM: TIMESTEP
2130000
ITEM: NUMBER OF ATOMS
128
ITEM: BOX BOUNDS mm mm mm
-6.4000000000000000e+01 6.4000000000000000e+01
-6.4000000000000000e+01 6.4000000000000000e+01
-6.4000000000000000e+01 6.4000000000000000e+01
ITEM: ATOMS id type x y z
1 1 -22.6622 17.9759 4.79135
2 1 -22.829 18.8923 4.89895
3 1 -23.0354 19.8259 4.92958
4 1 -23.2134 20.7278 5.01275
5 1 -23.3768 21.6795 4.97132
6 1 -23.5425 22.55 4.75199
7 1 -23.6647 23.4829 4.73306
8 1 -23.7461 24.3971 4.80816
9 1 -23.8656 25.273 5.09911
10 1 -24.0171 26.172 5.19321
11 1 -24.2874 27.0522 5.30203
12 1 -24.3945 27.9025 5.66584
13 1 -24.4553 28.7851 5.99919
14 1 -24.4631 29.75 6.13566
15 1 -24.3837 30.621 6.20348
16 1 -24.3763 31.5378 6.39586
17 1 -24.2992 32.4505 6.43929
18 1 -24.3485 33.3967 6.40665
19 1 -24.2979 34.3488 6.39869
20 1 -24.282 35.354 6.27989
21 1 -24.3896 36.2426 6.08269
22 1 -24.4032 37.1435 5.83088
23 1 -24.3651 38.0859 5.59062
24 1 -24.3706 38.952 5.19065
25 1 -24.3009 39.8339 4.86181
26 1 -24.1247 40.657 4.44687
27 1 -23.6534 41.45 4.30735
28 1 -22.9356 42.0993 4.32668
29 1 -22.1954 42.6127 4.36855
30 1 -21.27 42.895 4.2509
31 1 -20.3235 43.0418 4.16748
32 1 -19.4203 42.9207 4.10394
33 1 -18.554 42.7225 3.82573
34 1 -17.6393 42.4944 3.55436
35 1 -16.7647 42.2707 3.29604
36 1 -15.8706 42.2256 3.03204
37 1 -14.9813 42.216 2.64881
38 1 -14.1036 42.3169 2.35808
39 1 -13.3217 42.4311 1.91852
40 1 -12.4539 42.3887 1.45744
41 1 -11.679 42.223 0.984934
42 1 -10.91 42.0056 0.529428
43 1 -10.0316 41.8248 0.164738
44 1 -9.11299 41.7634 -0.148888
45 1 -8.24338 41.8707 -0.347942
46 1 -7.32432 42.0084 -0.54557
47 1 -6.39943 42.2298 -0.595252
48 1 -5.4709 42.2311 -0.689915
49 1 -4.54963 42.235 -0.64495
50 1 -3.61306 42.1843 -0.540612
51 1 -2.70594 41.967 -0.506255
52 1 -1.80149 41.7603 -0.343226
53 1 -0.849314 41.6093 -0.111344
54 1 -0.0325935 41.333 0.291039
55 1 0.856119 40.9675 0.56622
56 1 1.72907 40.7793 0.760068
57 1 2.60407 40.4921 0.895212
58 1 3.50685 40.2188 0.973278
59 1 4.41098 39.9887 0.738367
60 1 5.28284 39.6434 0.555976
61 1 6.1668 39.357 0.320897
62 1 7.03775 38.9145 0.25767
63 1 7.8861 38.5482 0.115412
64 1 8.72399 38.1155 -0.0669791
65 1 9.5391 37.755 -0.263511
66 1 10.3127 37.233 -0.489447
67 1 11.0313 36.7571 -0.585879
68 1 11.7871 36.1406 -0.596864
69 1 12.3888 35.4486 -0.672555
70 1 12.8658 34.6868 -0.672264
71 1 13.0901 33.773 -0.703218
72 1 13.205 32.8549 -0.803039
73 1 13.4122 31.9149 -0.894002
74 1 13.588 31.0268 -1.08126
75 1 13.7009 30.1004 -1.37219
76 1 13.831 29.2034 -1.62412
77 1 13.8866 28.2956 -1.88456
78 1 13.9914 27.3855 -2.02361
79 1 14.0697 26.4559 -1.9184
80 1 14.0347 25.5179 -1.83605
81 1 14.0262 24.5618 -1.65724
82 1 14.0755 23.6433 -1.50933
83 1 14.1475 22.7017 -1.39739
84 1 14.2178 21.8327 -1.2662
85 1 14.225 20.8699 -1.36318
86 1 13.916 19.9664 -1.38849
87 1 13.6396 19.106 -1.58783
88 1 13.3787 18.1445 -1.71742
89 1 13.076 17.2674 -1.68488
90 1 12.7475 16.4021 -1.94027
91 1 12.3713 15.5856 -2.1517
92 1 12.075 14.7247 -2.38135
93 1 11.6641 13.9301 -2.69491
94 1 11.4253 13.1184 -3.10568
95 1 11.2322 12.289 -3.46608
96 1 11.2157 11.5077 -4.00486
97 1 11.1062 10.8315 -4.69364
98 1 11.0695 10.2655 -5.42253
99 1 10.7008 9.80454 -6.14675
100 1 10.2429 9.36107 -6.76983
101 1 9.66414 8.95822 -7.40738
102 1 9.00496 8.69295 -7.96066
103 1 8.2905 8.61082 -8.58022
104 1 7.42493 8.51683 -8.98061
105 1 6.62154 8.46212 -9.4411
106 1 5.87836 8.75132 -9.89189
107 1 5.13368 8.78608 -10.4503
108 1 4.3321 8.88199 -10.9627
109 1 3.58809 9.12027 -11.4867
110 1 2.91352 9.44565 -11.9633
111 1 2.11322 9.78052 -12.4523
112 1 1.48618 10.2247 -13.0067
113 1 0.806299 10.6436 -13.5356
114 1 0.191423 11.1835 -13.9807
115 1 -0.461486 11.7776 -14.2624
116 1 -1.06999 12.4167 -14.574
117 1 -1.71912 12.9974 -14.9851
118 1 -2.31995 13.5596 -15.451
119 1 -2.85528 14.0689 -16.0656
120 1 -3.45333 14.503 -16.6456
121 1 -4.15807 14.8343 -17.1869
122 1 -4.85222 15.0191 -17.8368
123 1 -5.40996 15.2019 -18.5225
124 1 -5.92718 15.3211 -19.3115
125 1 -6.35611 15.5119 -20.0864
126 1 -6.81128 15.677 -21.0002
127 1 -7.25062 15.9078 -21.826
128 1 -7.62865 16.1189 -22.6048
ITEM: TIMESTEP
2140000
ITEM: NUMBER OF ATOMS
128
ITEM: BOX BOUNDS mm mm mm
-6.4000000000000000e+01 6.4000000000000000e+01
-6.4000000000000000e+01 6.4000000000000000e+01
-6.4000000000000000e+01 6.4000000000000000e+01
ITEM: ATOMS id type x y z
1 1 -19.8894 17.2737 9.5498
2 1 -20.4535 17.8842 9.0716
3 1 -20.6954 18.6419 8.53755
4 1 -21.0972 19.4425 8.15438
5 1 -21.3503 20.1548 7.62193
6 1 -21.6313 20.8886 7.04511
7 1 -22.0093 21.6184 6.58527
8 1 -22.2354 22.4654 6.18865
9 1 -22.5165 23.3716 6.01869
10 1 -22.6932 24.2949 5.94515
11 1 -23.0438 25.213 5.87148
12 1 -23.4791 26.0237 5.69413
13 1 -23.7136 26.9424 5.64489
14 1 -23.6994 27.8744 5.36022
15 1 -23.9268 28.7587 5.05924
16 1 -24.2262 29.5988 4.74522
17 1 -24.347 30.4876 4.50629
18 1 -24.4293 31.4336 4.37901
19 1 -24.3602 32.3466 4.23508
20 1 -24.1773 33.2877 3.99661
21 1 -23.9079 34.1629 3.70988
22 1 -23.6229 35.0584 3.36946
23 1 -23.337 35.9044 3.14632
24 1 -23.063 36.7354 2.84
25 1 -22.6898 37.5584 2.57763
26 1 -22.2544 38.3583 2.27589
27 1 -21.7701 39.2135 2.08586
28 1 -21.178 39.8771 1.8694
29 1 -20.3954 40.3893 1.56617
30 1 -19.7379 40.9405 1.20505
31 1 -19.0264 41.4791 0.894064
32 1 -18.2979 42.1143 0.680796
33 1 -17.542 42.7035 0.520221
34 1 -16.8349 43.3036 0.417393
35 1 -16.0112 43.6798 0.226587
36 1 -15.1553 44.0382 0.0238926
37 1 -14.3038 44.3803 -0.247535
38 1 -13.3405 44.6248 -0.316253
39 1 -12.398 44.7344 -0.377312
40 1 -11.4831 44.6812 -0.354806
41 1 -10.5264 44.5704 -0.361395
42 1 -9.55894 44.4253 -0.222577
43 1 -8.66731 44.1588 0.0917836
44 1 -7.74314 44.0728 0.255652
45 1 -6.88384 43.9509 0.567851
46 1 -5.99262 44.0069 0.79364
47 1 -5.0268 44.015 1.00393
48 1 -4.0868 43.966 1.11659
49 1 -3.17866 43.8999 0.968505
50 1 -2.21792 43.771 0.918354
51 1 -1.2643 43.7902 0.843553
52 1 -0.354048 43.6611 0.807018
53 1 0.52103 43.3127 0.700293
54 1 1.44993 42.9483 0.715455
55 1 2.28517 42.4718 0.662281
56 1 3.04207 41.8837 0.549507
57 1 3.93523 41.4872 0.330462
58 1 4.73085 41.0686 0.128653
59 1 5.52931 40.6255 -0.0769764
60 1 6.11824 39.9377 -0.119517
61 1 6.74812 39.1929 -0.0156316
62 1 7.44866 38.5603 -0.0845123
63 1 8.2084 37.9704 0.0418334
64 1 8.95133 37.3818 0.0889616
65 1 9.63367 36.8085 -0.0578087
66 1 10.2411 36.1422 -0.326246
67 1 10.7927 35.4802 -0.526103
68 1 11.2688 34.6901 -0.716861
69 1 11.6645 33.8554 -1.11226
70 1 11.983 33.0524 -1.46078
71 1 12.4683 32.2798 -1.72879
72 1 12.9282 31.5181 -2.06799
73 1 13.4613 30.748 -2.12131
74 1 14.1013 29.9473 -2.16562
75 1 14.5764 29.1026 -2.05224
76 1 14.8988 28.1612 -2.02465
77 1 15.3107 27.3432 -2.02519
78 1 15.6732 26.4931 -1.95018
79 1 16.0053 25.6388 -1.98948
80 1 16.0683 24.7305 -2.14101
81 1 16.2362 23.8604 -2.30569
82 1 16.1971 22.9425 -2.48907
83 1 16.1102 22.018 -2.65892
84 1 16.0275 21.1547 -2.90847
85 1 15.937 20.2561 -3.24324
86 1 15.8686 19.3813 -3.69451
87 1 15.9274 18.692 -4.2626
88 1 15.7902 17.8966 -4.66268
89 1 15.6744 17.0831 -5.19259
90 1 15.6131 16.2752 -5.68011
91 1 15.4308 15.5206 -6.25385
92 1 15.0256 14.7847 -6.67995
93 1 14.8178 13.9669 -7.06348
94 1 14.4268 13.139 -7.46952
95 1 14.1049 12.4419 -8.00719
96 1 13.6564 11.7885 -8.48502
97 1 13.1653 11.1145 -8.88196
98 1 12.6414 10.4569 -9.3208
99 1 12.0045 9.87516 -9.64846
100 1 11.2861 9.31298 -9.80857
101 1 10.5818 8.65664 -9.92544
102 1 9.88019 8.25549 -10.3594
103 1 9.05324 7.93971 -10.6993
104 1 8.16565 7.75641 -10.9813
105 1 7.25129 7.73504 -11.1466
106 1 6.3141 7.75499 -11.3054
107 1 5.40845 7.95209 -11.4759
108 1 4.60702 8.40372 -11.7256
109 1 3.75526 8.7861 -11.9865
110 1 2.85462 9.08896 -12.0481
111 1 1.95065 9.35624 -12.1634
112 1 0.986599 9.44258 -12.1224
113 1 0.0723302 9.73009 -11.8799
114 1 -0.81112 9.97948 -11.6934
115 1 -1.71706 10.1949 -11.5697
116 1 -2.65928 10.4333 -11.646
117 1 -3.56925 10.647 -11.8095
118 1 -4.47019 10.7961 -11.9989
119 1 -5.34561 11.1198 -12.0873
120 1 -6.17813 11.5367 -12.3009
121 1 -7.01277 12.019 -12.2695
122 1 -7.83533 12.3527 -12.4054
123 1 -8.76507 12.6363 -12.5871
124 1 -9.56969 13.1255 -12.6218
125 1 -10.4856 13.4082 -12.6236
126 1 -11.3754 13.686 -12.5476
127 1 -12.2914 13.8507 -12.4247
128 1 -13.1417 14.016 -12.0671
ITEM: TIMESTEP
2150000
ITEM: NUMBER OF ATOMS
128
ITEM: BOX BOUNDS mm mm mm
-6.4000000000000000e+01 6.4000000000000000e+01
-6.4000000000000000e+01 6.4000000000000000e+01
-6.4000000000000000e+01 6.4000000000000000e+01
ITEM: ATOMS id type x y z
1 1 -19.2921 16.766 12.375
2 1 -19.4158 17.135 11.5626
3 1 -19.7802 17.6295 10.8313
4 1 -20.0767 18.2972 10.2024
5 1 -20.2464 19.1413 9.83384
6 1 -20.3023 19.9795 9.4093
7 1 -20.4608 20.8655 9.221
8 1 -20.6792 21.7814 8.98846
9 1 -20.8943 22.7159 8.85252
10 1 -21.1536 23.6709 8.62748
11 1 -21.3006 24.5572 8.3437
12 1 -21.5993 25.4725 8.10356
13 1 -21.8485 26.3028 7.73293
14 1 -22.0422 27.104 7.3714
15 1 -22.183 27.9559 6.98862
16 1 -22.4405 28.7694 6.62044
17 1 -22.5244 29.5457 6.13415
18 1 -22.4928 30.3018 5.61907
19 1 -22.3871 31.0312 5.04973
20 1 -22.2875 31.9042 4.65589
21 1 -22.2072 32.7246 4.23776
22 1 -21.9906 33.4842 3.73773
23 1 -21.6728 34.3272 3.42058
24 1 -21.3123 35.1858 3.14927
25 1 -20.8141 35.9283 2.8744
26 1 -20.3413 36.6981 2.7179
27 1 -19.8269 37.4506 2.60499
28 1 -19.1865 38.0847 2.32574
29 1 -18.6517 38.7636 2.0538
30 1 -18.0717 39.5172 1.96055
31 1 -17.4231 40.1055 1.94475
32 1 -16.6839 40.7108 1.81875
33 1 -15.818 41.1098 1.69891
34 1 -14.9728 41.4915 1.57724
35 1 -14.2287 42.0465 1.29884
36 1 -13.5837 42.5776 0.868341
37 1 -12.8951 42.9686 0.40153
38 1 -12.0653 43.1186 -0.0999879
39 1 -11.2727 43.0443 -0.565982
40 1 -10.414 43.0233 -0.981463
41 1 -9.59142 42.7738 -1.31533
42 1 -8.80935 42.385 -1.66173
43 1 -8.02531 42.0304 -1.98925
44 1 -7.19317 41.8413 -2.36487
45 1 -6.40713 41.5966 -2.76422
46 1 -5.54818 41.3268 -3.0676
47 1 -4.61668 41.122 -3.30865
48 1 -3.73579 40.9648 -3.50016
49 1 -2.84773 40.6852 -3.71425
50 1 -1.91832 40.5613 -3.67809
51 1 -1.03734 40.3356 -3.53745
52 1 -0.0978497 40.066 -3.46547
53 1 0.8263 39.7132 -3.35663
54 1 1.62195 39.1697 -3.23232
55 1 2.3901 38.6196 -3.17651
56 1 3.18755 38.1547 -3.07183
57 1 3.93193 37.553 -2.9671
58 1 4.63021 36.9551 -2.82044
59 1 5.36869 36.4251 -2.55578
60 1 6.19659 36.0128 -2.28749
61 1 7.02922 35.6684 -1.94933
62 1 7.8282 35.4142 -1.62799
63 1 8.64655 35.1105 -1.3154
64 1 9.40951 34.6224 -0.980919
65 1 10.1764 34.1689 -0.683522
66 1 10.8993 33.617 -0.451956
67 1 11.5668 33.0758 -0.145222
68 1 12.2541 32.4583 0.101246
69 1 12.819 31.6932 0.0418284
70 1 13.3456 30.9637 -0.0684528
71 1 14.0159 30.2732 -0.172103
72 1 14.7248 29.5974 -0.276914
73 1 15.2489 28.8486 -0.485519
74 1 15.6019 27.9947 -0.610695
75 1 15.8943 27.1155 -0.628144
76 1 16.0489 26.2233 -0.716011
77 1 16.1171 25.2815 -0.994037
78 1 16.0914 24.3668 -1.14761
79 1 16.2586 23.476 -1.19822
80 1 16.2479 22.5495 -1.43064
81 1 16.302 21.6437 -1.56814
82 1 16.3272 20.7263 -1.73343
83 1 16.4956 19.8853 -2.10712
84 1 16.5884 19.016 -2.45617
85 1 16.7558 18.2308 -2.98967
86 1 16.8141 17.3981 -3.39872
87 1 16.7452 16.4975 -3.80498
88 1 16.5213 15.732 -4.30674
89 1 16.338 15.0381 -4.92807
90 1 15.9866 14.5554 -5.64938
91 1 15.464 14.1497 -6.32885
92 1 14.9425 13.7119 -6.93804
93 1 14.3899 13.2169 -7.5241
94 1 13.7991 12.5801 -7.94079
95 1 13.1156 12.1474 -8.47696
96 1 12.4609 11.84 -9.1337
97 1 11.8182 11.4477 -9.65254
98 1 11.1462 11.0897 -10.1756
99 1 10.4228 10.7094 -10.6918
100 1 9.71055 10.1659 -10.8229
101 1 8.88627 9.65363 -11.0654
102 1 8.07004 9.18345 -11.1641
103 1 7.18556 8.97542 -11.3298
104 1 6.24236 9.04217 -11.4736
105 1 5.37491 9.24219 -11.486
106 1 4.48135 9.4745 -11.4702
107 1 3.58526 9.60415 -11.5223
108 1 2.64508 9.66026 -11.5002
109 1 1.72612 9.74801 -11.4561
110 1 0.814714 9.83395 -11.4766
111 1 -0.141526 9.898 -11.6042
112 1 -1.05438 10.075 -11.8476
113 1 -1.98148 10.2905 -12.0398
114 1 -2.75558 10.7099 -12.4598
115 1 -3.48422 11.1423 -12.8803
116 1 -4.39071 11.4066 -13.0042
117 1 -5.28375 11.739 -12.987
118 1 -6.09186 12.1686 -12.963
119 1 -6.92237 12.5869 -12.8733
120 1 -7.76484 13.078 -12.9427
121 1 -8.52956 13.6179 -13.0665
122 1 -9.32512 14.0292 -13.1767
123 1 -10.1822 14.4425 -13.1558
124 1 -11.0316 14.8312 -13.1608
125 1 -11.9433 15.0461 -13.0047
126 1 -12.9489 15.0126 -12.7527
127 1 -13.9218 14.9118 -12.7698
128 1 -14.8242 14.9529 -12.6532
ITEM: TIMESTEP
2160000
ITEM: NUMBER OF ATOMS
128
ITEM: BOX BOUNDS mm mm mm
-6.4000000000000000e+01 6.4000000000000000e+01
-6.4000000000000000e+01 6.4000000000000000e+01
-6.4000000000000000e+01 6.4000000000000000e+01
ITEM: ATOMS id type x y z
1 1 -19.9149 18.724 19.6987
2 1 -19.8805 19.3805 19.0175
3 1 -19.8375 19.9909 18.3336
4 1 -19.9358 20.5435 17.5802
5 1 -19.9964 21.189 16.846
6 1 -20.065 21.706 16.0704
7 1 -20.0964 22.2797 15.3138
8 1 -20.1373 22.7994 14.5095
9 1 -20.1939 23.3593 13.8009
10 1 -20.2588 24.0369 13.1219
11 1 -20.2819 24.68 12.4137
12 1 -20.2657 25.3602 11.7184
13 1 -20.0187 26.1624 11.2599
14 1 -19.8628 26.9487 10.7818
15 1 -19.6216 27.7374 10.2822
16 1 -19.3336 28.4012 9.68768
17 1 -19.0433 29.0355 8.99899
18 1 -18.8559 29.6444 8.28299
19 1 -18.7856 30.3649 7.62059
20 1 -18.8196 31.0155 6.9361
21 1 -18.6033 31.6741 6.29187
22 1 -18.2832 32.2649 5.57696
23 1 -17.8866 32.8894 5.04853
24 1 -17.4323 33.619 4.63234
25 1 -17.0176 34.2814 4.17435
26 1 -16.7346 35.0148 3.69618
27 1 -16.4984 35.6141 3.0321
28 1 -16.1968 36.1459 2.32543
29 1 -16.0482 36.839 1.70582
30 1 -15.8659 37.5631 1.11292
31 1 -15.7261 38.1673 0.393739
32 1 -15.3552 38.7322 -0.277659
33 1 -15.0261 39.3354 -0.894476
34 1 -14.659 39.9429 -1.56902
35 1 -14.2598 40.5702 -2.16546
36 1 -13.6047 41.1924 -2.62095
37 1 -12.8478 41.6993 -2.89729
38 1 -12.1237 42.2617 -3.05217
39 1 -11.4238 42.7825 -3.30019
40 1 -10.693 43.3362 -3.43269
41 1 -10.0269 44.0035 -3.55697
42 1 -9.31821 44.5929 -3.55286
43 1 -8.45522 45.0331 -3.59937
44 1 -7.55165 45.3565 -3.71589
45 1 -6.67157 45.6646 -3.79788
46 1 -5.74923 45.645 -3.77829
47 1 -4.81302 45.6925 -3.81099
48 1 -3.87566 45.6682 -3.88012
49 1 -2.96596 45.3594 -3.89936
50 1 -2.15039 44.8786 -3.90802
51 1 -1.28698 44.5155 -3.83434
52 1 -0.415634 44.2442 -4.03752
53 1 0.448542 43.791 -4.09008
54 1 1.33319 43.3908 -4.0652
55 1 2.12693 42.9445 -4.1588
56 1 2.92159 42.48 -4.29096
57 1 3.598 41.845 -4.34786
58 1 4.33333 41.2445 -4.03896
59 1 5.02715 40.6462 -3.91559
60 1 5.63532 39.9546 -3.72621
61 1 6.00643 39.1172 -3.48815
62 1 6.36182 38.2927 -3.17946
63 1 6.69998 37.4854 -3.00057
64 1 7.09488 36.6392 -3.05678
65 1 7.54784 35.8445 -2.96635
66 1 7.9021 34.9593 -2.71421
67 1 8.36799 34.0253 -2.65381
68 1 8.79637 33.2858 -2.40934
69 1 9.26108 32.6143 -1.95979
70 1 9.55659 31.8578 -1.46191
71 1 9.87035 30.9928 -1.20728
72 1 10.111 30.0831 -1.14382
73 1 10.4798 29.2289 -1.06207
74 1 10.7469 28.2906 -1.06669
75 1 10.9846 27.4189 -0.993103
76 1 11.3024 26.4985 -1.12972
77 1 11.5541 25.5779 -1.2031
78 1 11.9979 24.7404 -1.34949
79 1 12.235 23.809 -1.39918
80 1 12.533 22.8877 -1.42188
81 1 12.632 21.9954 -1.50244
82 1 12.3714 21.0866 -1.4453
83 1 12.0702 20.1938 -1.57972
84 1 11.9363 19.2599 -1.67076
85 1 11.8285 18.3546 -1.76373
86 1 11.8297 17.4116 -1.98892
87 1 11.8091 16.5736 -2.39547
88 1 11.7152 15.8159 -2.9946
89 1 11.6409 15.0323 -3.46639
90 1 11.4946 14.263 -3.93762
91 1 11.3507 13.4574 -4.38298
92 1 11.2896 12.6316 -4.86764
93 1 11.0519 11.8438 -5.26271
94 1 10.7515 11.0567 -5.70003
95 1 10.3921 10.2591 -6.14867
96 1 9.94287 9.50283 -6.68371
97 1 9.60409 8.81178 -7.22638
98 1 9.24361 8.09812 -7.66258
99 1 8.82702 7.55984 -8.30702
100 1 8.26299 7.09129 -8.8553
101 1 7.55079 6.69892 -9.52243
102 1 6.76989 6.44872 -9.91329
103 1 5.85825 6.22166 -10.0697
104 1 4.9967 5.98367 -10.2143
105 1 4.12393 5.76408 -10.4151
106 1 3.20205 5.56846 -10.5375
107 1 2.22638 5.45597 -10.6752
108 1 1.26654 5.45052 -10.8113
109 1 0.373781 5.58866 -10.9169
110 1 -0.538548 5.73837 -10.8307
111 1 -1.45424 5.74256 -10.6736
112 1 -2.38788 5.8215 -10.7589
113 1 -3.29086 5.9059 -10.7458
114 1 -4.16814 6.19877 -10.5193
115 1 -4.93756 6.67965 -10.3238
116 1 -5.74932 7.18307 -10.1114
117 1 -6.45618 7.74214 -9.9122
118 1 -7.1255 8.34965 -9.6029
119 1 -7.71068 9.08288 -9.34557
120 1 -8.3172 9.75979 -9.20761
121 1 -9.02822 10.3835 -9.11954
122 1 -9.64827 11.1069 -9.0525
123 1 -10.3966 11.7268 -8.82553
124 1 -11.2071 12.2464 -8.69336
125 1 -12.0659 12.6935 -8.53409
126 1 -12.9508 13.0422 -8.30203
127 1 -13.7996 13.2622 -7.9832
128 1 -14.6795 13.279 -7.73065
ITEM: TIMESTEP
2170000
ITEM: NUMBER OF ATOMS
128
ITEM: BOX BOUNDS mm mm mm
-6.4000000000000000e+01 6.4000000000000000e+01
-6.4000000000000000e+01 6.4000000000000000e+01
-6.4000000000000000e+01 6.4000000000000000e+01
ITEM: ATOMS id type x y z
1 1 -21.5652 25.3237 24.4338
2 1 -21.4824 25.5042 23.5002
3 1 -21.5856 25.7933 22.5815
4 1 -21.8289 26.0324 21.6577
5 1 -21.9839 26.1794 20.6873
6 1 -22.2092 26.3516 19.8153
7 1 -22.4703 26.5517 18.8973
8 1 -22.7354 26.8036 18.0151
9 1 -23.0092 27.2227 17.2187
10 1 -23.0741 27.6062 16.3787
11 1 -23.1804 27.9046 15.5055
12 1 -23.2742 28.2404 14.6894
13 1 -23.4021 28.5396 13.8109
14 1 -23.3034 28.8288 12.9352
15 1 -23.1338 29.2097 12.0519
16 1 -23.0661 29.5551 11.1943
17 1 -22.9982 29.975 10.3575
18 1 -22.7741 30.2999 9.5682
19 1 -22.5387 30.7308 8.74217
20 1 -22.1685 31.221 8.02289
21 1 -21.7211 31.667 7.33948
22 1 -21.3434 32.1231 6.56848
23 1 -20.818 32.5762 5.90099
24 1 -20.31 33.1795 5.29824
25 1 -19.6283 33.7284 4.99964
26 1 -19.0883 34.4665 4.70782
27 1 -18.5239 35.1889 4.4895
28 1 -17.8836 35.8515 4.22845
29 1 -17.4014 36.6088 3.8658
30 1 -16.8405 37.2913 3.57557
31 1 -16.3632 38.0605 3.24957
32 1 -15.7932 38.7291 3.00615
33 1 -15.155 39.2729 2.69893
34 1 -14.4627 39.8522 2.40708
35 1 -13.7025 40.3801 2.29803
36 1 -12.9886 41.0224 2.10064
37 1 -12.2143 41.5287 1.88087
38 1 -11.4914 42.162 1.72682
39 1 -10.7041 42.5797 1.49282
40 1 -9.81367 42.8509 1.27998
41 1 -8.98544 43.1978 1.23018
42 1 -8.07089 43.5337 1.08377
43 1 -7.29092 43.9068 0.916402
44 1 -6.39164 44.1972 0.768647
45 1 -5.51842 44.5548 0.680487
46 1 -4.73607 44.9544 0.378776
47 1 -3.96142 45.2458 0.0154202
48 1 -3.21321 45.4355 -0.577342
49 1 -2.36728 45.5001 -1.07701
50 1 -1.52053 45.5113 -1.57226
51 1 -0.675904 45.651 -1.98808
52 1 0.196778 45.6404 -2.43032
53 1 1.1065 45.6254 -2.58824
54 1 2.10873 45.4612 -2.63346
55 1 2.99108 45.2228 -2.73113
56 1 3.8631 44.8577 -2.73945
57 1 4.67922 44.3913 -2.9104
58 1 5.51981 43.9465 -2.94094
59 1 6.4693 43.7199 -3.04734
60 1 7.34236 43.281 -3.10986
61 1 8.18865 42.8898 -3.14325
62 1 9.02491 42.4616 -3.27853
63 1 9.71072 41.8283 -3.35658
64 1 10.3809 41.1849 -3.38558
65 1 10.9324 40.3821 -3.55495
66 1 11.4904 39.6403 -3.74283
67 1 12.0541 38.8319 -3.82872
68 1 12.5285 37.9919 -3.90342
69 1 12.8161 37.0919 -4.03061
70 1 13.1431 36.2123 -3.97975
71 1 13.5544 35.3672 -4.07725
72 1 13.9669 34.5253 -4.27957
73 1 14.2142 33.638 -4.28689
74 1 14.4475 32.7716 -4.34016
75 1 14.4143 31.8785 -4.32495
76 1 14.3865 30.9134 -4.40779
77 1 14.6515 30.0223 -4.53576
78 1 14.8734 29.0404 -4.78387
79 1 15.0688 28.1215 -4.8321
80 1 15.0942 27.2212 -5.00535
81 1 15.2501 26.3404 -5.18152
82 1 15.4255 25.4092 -5.29489
83 1 15.4407 24.4847 -5.44017
84 1 15.5279 23.57 -5.62057
85 1 15.7865 22.7006 -5.51821
86 1 16.1218 21.8505 -5.37779
87 1 16.1858 20.9589 -5.03054
88 1 16.0954 20.0481 -4.88202
89 1 15.8248 19.1657 -4.82421
90 1 15.5859 18.2563 -4.89706
91 1 15.2595 17.3955 -5.109
92 1 14.8204 16.5883 -5.25261
93 1 14.4592 15.7152 -5.47104
94 1 13.9127 15.0047 -5.76599
95 1 13.3988 14.2583 -5.86247
96 1 12.9186 13.3947 -5.92367
97 1 12.4515 12.59 -6.04775
98 1 11.8482 11.7846 -6.2676
99 1 11.3008 10.9687 -6.49206
100 1 10.7607 10.289 -6.81913
101 1 10.1617 9.80034 -7.29279
102 1 9.61509 9.17893 -7.78207
103 1 8.95146 8.53888 -8.0354
104 1 8.21377 7.97854 -8.28548
105 1 7.4226 7.55154 -8.42443
106 1 6.49731 7.34246 -8.58522
107 1 5.58884 7.31482 -8.67594
108 1 4.59316 7.39087 -8.69567
109 1 3.66712 7.42254 -8.74541
110 1 2.71741 7.33501 -8.69357
111 1 1.80264 7.14913 -8.45209
112 1 1.02071 6.93982 -8.10564
113 1 0.0985516 6.81266 -7.86687
114 1 -0.788374 6.78857 -7.56172
115 1 -1.67324 6.82853 -7.29534
116 1 -2.58263 6.61918 -7.05728
117 1 -3.53374 6.60391 -6.947
118 1 -4.47676 6.68143 -6.86811
119 1 -5.38124 6.8358 -6.98805
120 1 -6.25445 7.15919 -7.27328
121 1 -7.0802 7.62451 -7.4478
122 1 -7.82698 8.16685 -7.56442
123 1 -8.57255 8.6697 -7.84746
124 1 -9.24306 9.20434 -8.14657
125 1 -9.87772 9.76744 -8.47191
126 1 -10.5946 10.315 -8.87823
127 1 -11.1883 10.9348 -9.30567
128 1 -11.6295 11.4129 -9.97395
ITEM: TIMESTEP
2180000
ITEM: NUMBER OF ATOMS
128
ITEM: BOX BOUNDS mm mm mm
-6.4000000000000000e+01 6.4000000000000000e+01
-6.4000000000000000e+01 6.4000000000000000e+01
-6.4000000000000000e+01 6.4000000000000000e+01
ITEM: ATOMS id type x y z
1 1 -28.1645 20.615 22.3999
2 1 -28.3342 20.8138 21.4657
3 1 -28.4602 21.0918 20.5622
4 1 -28.6188 21.3365 19.7018
5 1 -28.7794 21.6613 18.7773
6 1 -28.6553 22.0146 17.9289
7 1 -28.4861 22.5209 17.1679
8 1 -28.0018 23.15 16.5355
9 1 -27.7254 23.7749 15.8637
10 1 -27.4772 24.4435 15.2183
11 1 -27.3626 25.2111 14.7236
12 1 -27.1937 26.042 14.2523
13 1 -26.8385 26.698 13.7372
14 1 -26.3199 27.2311 13.2674
15 1 -25.6189 27.6904 12.7385
16 1 -24.8908 28.0548 12.2658
17 1 -24.2372 28.4847 11.6823
18 1 -23.5516 28.8896 11.1591
19 1 -22.8687 29.2012 10.5782
20 1 -22.1792 29.5353 10.0713
21 1 -21.3951 29.9885 9.6036
22 1 -20.6035 30.3307 9.20881
23 1 -19.8356 30.6871 8.74278
24 1 -19.0468 30.9733 8.29459
25 1 -18.2816 31.4067 7.96498
26 1 -17.4811 31.7782 7.53494
27 1 -16.6467 31.9381 7.12719
28 1 -15.8239 31.8691 6.70323
29 1 -14.8745 31.7652 6.45802
30 1 -14.0145 31.6825 6.21987
31 1 -13.0882 31.6747 5.86073
32 1 -12.2167 31.8544 5.58257
33 1 -11.3537 32.0428 5.18733
34 1 -10.5621 32.4775 4.90049