ITEM: TIMESTEP
290000
ITEM: NUMBER OF ATOMS
128
ITEM: BOX BOUNDS mm mm mm
-6.4000000000000000e+01 6.4000000000000000e+01
-6.4000000000000000e+01 6.4000000000000000e+01
-6.4000000000000000e+01 6.4000000000000000e+01
ITEM: ATOMS id type x y z
1 1 -10.4252 4.68887 1.93677
2 1 -10.2127 3.89686 2.33967
3 1 -9.60402 3.41593 1.75029
4 1 -9.22949 4.31255 1.80372
5 1 -8.70217 5.05822 2.00628
6 1 -8.48284 5.74735 2.65677
7 1 -8.33058 6.38624 2.0057
8 1 -8.37641 5.7538 1.33029
9 1 -7.95233 5.23641 0.674014
10 1 -7.43111 4.48279 0.333167
11 1 -7.21114 3.90085 -0.419073
12 1 -6.45867 3.80309 0.164419
13 1 -6.69935 3.57915 1.04381
14 1 -6.53356 2.71098 1.40596
15 1 -7.34464 2.69548 0.894853
16 1 -8.01016 3.34804 0.865605
17 1 -8.10155 4.19561 1.32367
18 1 -7.60333 4.81466 1.80767
19 1 -7.80405 4.32554 2.56169
20 1 -7.09509 4.45083 3.23992
21 1 -6.79583 5.31464 2.97672
22 1 -7.13751 6.19647 2.92821
23 1 -7.06428 7.06318 3.2581
24 1 -6.18963 6.85139 3.5773
25 1 -5.76678 7.65136 3.37296
26 1 -5.28075 8.46211 3.4026
27 1 -4.48876 7.94767 3.58605
28 1 -4.7452 7.14746 3.22141
29 1 -5.23507 6.52588 3.74357
30 1 -5.24392 5.79314 4.30027
31 1 -4.32461 5.60318 4.44351
32 1 -3.88848 5.30926 3.67232
33 1 -4.10658 4.44372 3.34461
34 1 -3.79997 5.05194 2.58514
35 1 -3.0113 5.42788 2.91149
36 1 -2.43931 5.94359 2.35819
37 1 -1.64345 5.45438 2.3228
38 1 -1.30564 4.6722 2.73798
39 1 -0.65754 4.68005 3.37067
40 1 0.245204 4.85593 3.36321
41 1 0.373547 5.14749 2.50369
42 1 0.423277 4.23081 2.25663
43 1 0.801749 3.35448 2.15834
44 1 1.23539 3.58075 2.91486
45 1 1.51458 2.69427 3.18896
46 1 2.39557 2.50996 3.24186
47 1 3.17687 2.95592 2.92098
48 1 2.96642 3.82637 3.18686
49 1 2.99329 4.71868 2.79317
50 1 3.14884 5.5982 2.38703
51 1 3.88364 6.11582 2.19564
52 1 4.84961 5.99847 2.08621
53 1 4.98197 6.79822 1.62512
54 1 5.0101 6.24269 0.786576
55 1 4.91242 5.44507 0.379268
56 1 4.01513 5.54456 0.166976
57 1 3.76675 6.47292 0.0022487
58 1 3.70246 7.15245 -0.634756
59 1 3.03781 6.49339 -0.772138
60 1 2.26082 6.00357 -0.719802
61 1 1.54266 5.49306 -1.083
62 1 0.773253 5.78854 -1.54098
63 1 1.19523 5.43923 -2.39012
64 1 1.92184 5.16509 -2.85714
65 1 1.65459 4.23437 -3.0219
66 1 1.30928 3.43443 -3.33322
67 1 1.84069 2.65327 -3.29462
68 1 2.60342 2.64542 -2.74167
69 1 2.79262 3.53907 -2.95161
70 1 3.20887 3.4114 -3.7961
71 1 3.71658 3.87741 -4.4259
72 1 3.88745 4.22054 -3.59841
73 1 4.64313 3.87574 -3.18562
74 1 5.18253 4.11381 -2.46194
75 1 5.11042 3.99493 -1.55025
76 1 5.71478 3.59687 -0.932812
77 1 6.11171 4.14704 -1.62405
78 1 6.77717 4.80528 -1.54576
79 1 7.26304 4.69743 -2.3642
80 1 6.35363 4.75114 -2.72472
81 1 5.67122 5.33628 -3.04918
82 1 6.16215 4.78904 -3.72936
83 1 5.41956 4.76682 -4.29548
84 1 5.92 4.85627 -5.05159
85 1 6.85675 4.85191 -5.17518
86 1 6.51131 3.96016 -5.25874
87 1 6.21279 3.55479 -4.42286
88 1 6.99629 2.98899 -4.5598
89 1 7.5374 2.92069 -3.74039
90 1 8.34441 3.37315 -3.88755
91 1 9.27362 3.37959 -3.67471
92 1 9.0851 2.55356 -3.92289
93 1 9.87122 2.25292 -4.35076
94 1 10.2431 2.25555 -5.25231
95 1 10.8307 1.93088 -6.0111
96 1 10.7059 1.21176 -5.38786
97 1 10.0251 0.481063 -5.54733
98 1 9.4975 0.553526 -4.81604
99 1 8.97687 0.977622 -4.12208
100 1 8.20504 1.48126 -4.48035
101 1 7.78414 0.890085 -5.07131
102 1 8.27519 0.690922 -5.86399
103 1 7.58903 0.810388 -6.50452
104 1 7.65698 1.61812 -7.08432
105 1 7.75256 2.34424 -6.44955
106 1 7.46947 2.78551 -7.20523
107 1 6.85076 3.07551 -7.81628
108 1 6.472 2.18098 -7.94963
109 1 5.66576 2.47055 -8.26758
110 1 4.76883 2.34032 -8.53429
111 1 4.37622 2.68695 -9.31263
112 1 4.03646 2.25108 -10.0307
113 1 3.55599 1.6319 -10.5005
114 1 3.14335 1.57031 -9.62678
115 1 2.35175 1.68908 -9.21296
116 1 2.47631 1.95891 -8.32181
117 1 2.36967 1.06085 -8.10947
118 1 1.67373 0.849349 -7.44827
119 1 2.29869 0.253837 -7.07632
120 1 1.81239 -0.27077 -6.4309
121 1 1.37095 -0.738462 -5.6826
122 1 2.12369 -0.746875 -5.02922
123 1 1.80361 -0.424658 -4.16824
124 1 1.71675 -0.692869 -3.2169
125 1 1.33911 -0.0947989 -2.55754
126 1 1.42479 0.826179 -2.22746
127 1 0.655983 1.06531 -2.68312
128 1 -0.242896 1.39209 -2.55598
ITEM: TIMESTEP
300000
ITEM: NUMBER OF ATOMS
128
ITEM: BOX BOUNDS mm mm mm
-6.4000000000000000e+01 6.4000000000000000e+01
-6.4000000000000000e+01 6.4000000000000000e+01
-6.4000000000000000e+01 6.4000000000000000e+01
ITEM: ATOMS id type x y z
1 1 -5.49416 9.08767 -2.19444
2 1 -4.6924 8.709 -2.05455
3 1 -5.17383 7.94962 -1.86872
4 1 -5.73209 7.28144 -1.54594
5 1 -6.63799 7.08092 -1.85745
6 1 -6.61354 7.05757 -0.902922
7 1 -7.21051 6.95996 -0.204167
8 1 -8.07278 6.86977 0.220327
9 1 -8.29782 6.15831 0.794842
10 1 -7.49792 6.44237 1.23052
11 1 -6.58189 6.59504 1.24062
12 1 -5.65964 6.58062 1.5227
13 1 -5.92397 5.68415 1.41148
14 1 -6.66168 5.09736 1.19952
15 1 -7.24567 4.63088 1.69507
16 1 -6.30997 4.41107 1.78317
17 1 -5.99997 3.90325 2.52617
18 1 -5.13804 4.00795 2.80233
19 1 -4.8329 3.2148 2.40662
20 1 -5.3445 2.78515 3.07448
21 1 -6.07866 2.79173 3.65362
22 1 -5.72336 3.06756 4.45265
23 1 -5.80087 3.99255 4.82782
24 1 -5.87723 4.91108 5.00554
25 1 -5.30617 4.8637 5.74353
26 1 -4.46965 4.59749 6.06091
27 1 -4.59266 5.12771 6.8117
28 1 -4.18005 6.01385 6.96532
29 1 -3.8813 6.60715 6.29968
30 1 -2.98123 6.58042 6.7395
31 1 -3.38873 7.34076 7.13234
32 1 -3.33757 7.8009 6.27206
33 1 -3.21627 7.81321 5.33364
34 1 -2.70493 7.32532 4.7009
35 1 -1.81992 7.07185 4.87228
36 1 -0.9346 6.99474 4.65564
37 1 -0.737252 6.69427 5.57667
38 1 0.145885 7.19972 5.42682
39 1 1.01671 7.46588 5.58408
40 1 1.76151 6.92387 5.39677
41 1 1.51851 6.42386 6.08514
42 1 1.52421 6.3543 7.01744
43 1 1.86087 5.61945 6.68765
44 1 2.5167 5.50375 6.04014
45 1 3.08256 5.97421 5.46675
46 1 3.57081 6.36281 4.78464
47 1 3.79888 7.24756 4.74254
48 1 3.84774 6.78921 3.86948
49 1 4.36415 5.93732 3.76249
50 1 4.14695 5.5392 2.91889
51 1 3.85321 6.11753 2.25941
52 1 3.02834 6.3395 1.85706
53 1 2.38645 6.94002 2.06441
54 1 1.85108 6.22623 1.77173
55 1 2.01228 5.36419 1.58799
56 1 2.41911 5.60098 0.718132
57 1 2.45883 6.41124 0.292287
58 1 2.49239 7.2183 0.731878
59 1 3.19591 7.71245 1.17964
60 1 4.07942 8.07211 1.1481
61 1 4.32394 8.66672 0.471874
62 1 5.17257 8.94874 0.254641
63 1 5.93521 9.42888 0.622877
64 1 5.64446 10.255 0.37041
65 1 5.41654 11.1404 0.293158
66 1 4.87825 11.6695 0.777758
67 1 3.9304 11.5618 0.746171
68 1 3.00983 11.3194 0.836485
69 1 2.6685 11.8862 0.104305
70 1 3.27644 12.1326 -0.641429
71 1 3.48567 11.4921 -1.28658
72 1 2.87675 11.6936 -2.02709
73 1 2.09547 11.8891 -2.55186
74 1 2.63539 11.4953 -3.18194
75 1 3.00635 11.8116 -3.97066
76 1 3.86653 11.4853 -4.09153
77 1 3.67247 10.6678 -4.47325
78 1 4.26905 10.0142 -4.66437
79 1 5.19518 9.76489 -4.55718
80 1 5.78142 9.43146 -5.21299
81 1 6.48231 8.94826 -5.63459
82 1 6.73157 8.13416 -5.21406
83 1 6.9065 7.69549 -6.06769
84 1 6.01137 7.64809 -6.29118
85 1 5.89517 8.5714 -6.32256
86 1 6.38587 8.40514 -7.11137
87 1 5.9522 8.21133 -7.93305
88 1 6.82538 8.08461 -8.28249
89 1 6.76824 8.3507 -9.15111
90 1 6.169 8.53342 -9.94637
91 1 7.01343 8.75122 -10.3011
92 1 7.45473 9.56331 -10.1293
93 1 7.98592 8.87124 -9.77211
94 1 8.31989 8.0274 -9.59858
95 1 8.0016 7.3785 -8.98373
96 1 8.63132 6.63351 -9.12815
97 1 9.03822 5.9188 -8.69159
98 1 8.48735 5.26893 -8.16907
99 1 8.59937 4.44174 -7.76629
100 1 8.89964 3.62812 -7.43704
101 1 9.00893 2.69089 -7.23137
102 1 9.31656 2.94181 -6.41043
103 1 9.15926 3.81617 -6.02242
104 1 9.26554 3.84452 -5.08521
105 1 8.54395 3.23705 -5.18392
106 1 8.16039 3.92345 -4.72445
107 1 7.2836 3.74318 -4.82776
108 1 6.78378 3.54591 -5.58185
109 1 6.08817 2.94689 -5.86413
110 1 5.19572 2.65451 -5.96659
111 1 4.70465 2.5838 -5.16863
112 1 4.27817 2.92491 -4.42252
113 1 3.83105 2.65626 -3.58622
114 1 4.60801 2.26378 -3.20135
115 1 4.90789 2.88074 -2.58113
116 1 4.45502 2.2783 -2.04145
117 1 4.65039 1.42563 -1.67833
118 1 3.7795 1.51624 -1.76865
119 1 3.17086 1.47609 -1.07428
120 1 2.7121 1.3447 -1.91705
121 1 2.71344 1.09618 -2.81952
122 1 1.95162 1.48772 -3.13251
123 1 1.57284 2.38899 -3.2682
124 1 1.39233 2.94563 -2.51818
125 1 1.15869 3.75996 -2.94893
126 1 1.85531 3.6854 -3.54275
127 1 2.14454 4.4402 -3.10397
128 1 1.54571 4.89152 -3.72127
ITEM: TIMESTEP
310000
ITEM: NUMBER OF ATOMS
128
ITEM: BOX BOUNDS mm mm mm
-6.4000000000000000e+01 6.4000000000000000e+01
-6.4000000000000000e+01 6.4000000000000000e+01
-6.4000000000000000e+01 6.4000000000000000e+01
ITEM: ATOMS id type x y z
1 1 -7.83946 4.98595 3.7245
2 1 -7.89524 4.25473 4.33747
3 1 -7.80587 3.68153 5.09141
4 1 -7.40878 3.6698 5.91741
5 1 -7.69812 4.48193 6.32006
6 1 -7.06398 4.23431 6.90224
7 1 -6.71618 3.34698 7.12868
8 1 -6.09999 3.57784 7.865
9 1 -5.60541 4.19705 8.3751
10 1 -5.41974 4.79453 9.11438
11 1 -4.55396 4.5498 9.06866
12 1 -3.91286 5.23041 8.82307
13 1 -4.07535 5.96712 9.35404
14 1 -4.99838 6.05631 9.30032
15 1 -5.51927 6.85241 9.15777
16 1 -5.83806 7.68506 8.9648
17 1 -6.29786 7.99065 8.20685
18 1 -5.75909 7.6221 7.52345
19 1 -5.20029 8.13141 6.95647
20 1 -4.76625 8.91495 7.1684
21 1 -4.86587 9.61487 6.47249
22 1 -5.32919 10.2604 6.02347
23 1 -5.03673 10.96 5.40862
24 1 -4.56225 11.7084 5.07864
25 1 -4.13595 11.7971 4.2552
26 1 -4.44104 11.2108 3.60194
27 1 -4.28114 10.4677 3.03846
28 1 -4.88517 9.823 3.26379
29 1 -4.97652 8.94071 3.61087
30 1 -4.4784 8.49838 2.87695
31 1 -3.88243 9.07317 2.45084
32 1 -3.04666 9.40489 2.73188
33 1 -2.53764 9.94324 3.28554
34 1 -2.78019 10.8766 3.3622
35 1 -2.15373 10.9946 4.0567
36 1 -1.99638 11.4274 4.85775
37 1 -1.16208 10.9648 4.75057
38 1 -0.887464 11.6361 4.11002
39 1 -0.353618 11.0781 3.57008
40 1 -0.106454 10.2394 3.2325
41 1 0.772399 9.95988 3.08089
42 1 0.671097 9.1975 3.56847
43 1 0.263702 8.38309 3.74432
44 1 0.251054 7.55399 4.20974
45 1 -0.411005 8.15708 4.60484
46 1 -1.00181 8.48437 5.24398
47 1 -0.72431 9.15173 5.84479
48 1 -0.339174 10.0129 6.05052
49 1 0.234482 9.38703 6.38105
50 1 1.01187 9.86904 6.22938
51 1 1.44476 9.26207 5.66493
52 1 2.13438 8.89182 5.17583
53 1 2.77734 9.19608 4.58022
54 1 3.57416 8.78407 4.33573
55 1 3.83624 9.57366 3.97113
56 1 4.7173 9.60588 3.61614
57 1 5.20087 8.78678 3.66836
58 1 4.73775 8.03125 3.50441
59 1 5.02901 7.76649 4.35007
60 1 5.00607 7.28221 5.14417
61 1 4.88103 8.15034 5.49011
62 1 4.92106 9.07524 5.7869
63 1 5.62151 9.29081 5.20191
64 1 5.80243 9.34026 4.26126
65 1 6.0955 10.0156 3.66371
66 1 6.85749 10.5285 3.48855
67 1 7.28489 11.3923 3.31435
68 1 7.2373 11.3888 2.40885
69 1 7.73063 11.3492 1.49661
70 1 7.61438 11.6263 0.609205
71 1 7.62413 11.7618 -0.314119
72 1 7.11749 10.9508 -0.186822
73 1 6.1467 10.8927 -0.229453
74 1 5.33271 11.1811 -0.469324
75 1 4.66343 11.8143 -0.580266
76 1 4.65357 12.0787 -1.51531
77 1 4.023 12.7518 -1.86445
78 1 4.25427 12.9083 -2.74794
79 1 4.42271 12.134 -3.28125
80 1 4.38448 11.1918 -3.36742
81 1 5.18087 11.1141 -3.88791
82 1 6.02834 11.4878 -3.79061
83 1 5.62298 12.1309 -4.36341
84 1 5.18464 12.8541 -4.74138
85 1 5.35981 12.9672 -5.65008
86 1 5.88107 12.479 -6.29614
87 1 5.90313 12.1836 -7.17181
88 1 5.94906 11.3718 -7.60843
89 1 6.92172 11.308 -7.58346
90 1 7.06813 11.5552 -8.50502
91 1 7.91936 11.1439 -8.63097
92 1 7.80533 10.2495 -8.58139
93 1 7.26803 10.3262 -7.88474
94 1 7.07132 10.4366 -6.89232
95 1 6.81686 10.1505 -6.036
96 1 7.71527 10.0001 -5.80614
97 1 8.03246 9.38688 -5.18816
98 1 8.08294 8.43863 -5.03358
99 1 7.40388 8.66983 -5.78063
100 1 7.39119 8.5578 -6.7534
101 1 7.59283 7.67885 -7.0121
102 1 8.03813 7.15262 -7.72046
103 1 8.24753 6.51576 -7.0528
104 1 8.90454 5.81076 -6.83491
105 1 8.5398 5.4357 -7.60549
106 1 7.70883 5.17233 -7.72602
107 1 7.8677 4.25064 -7.60337
108 1 8.79928 4.11138 -7.5134
109 1 9.44495 4.3483 -6.87188
110 1 9.48371 4.51422 -5.9161
111 1 9.14429 4.95666 -5.16044
112 1 9.72984 4.54439 -4.47003
113 1 9.73713 4.09058 -3.56223
114 1 9.03958 3.68377 -4.09847
115 1 8.74369 3.37741 -3.18743
116 1 8.8701 4.25957 -2.84642
117 1 8.82354 5.09271 -3.36022
118 1 7.93876 5.2966 -3.09099
119 1 7.23554 4.73126 -3.05817
120 1 6.36161 4.29098 -2.98265
121 1 6.13106 3.96786 -2.11027
122 1 5.26706 3.82678 -2.47426
123 1 5.09352 3.4768 -3.3811
124 1 5.45193 3.03699 -4.14188
125 1 5.64325 2.49746 -3.34922
126 1 6.50104 2.20977 -3.7441
127 1 5.7951 1.73374 -4.13177
128 1 5.62542 0.933373 -3.73169
ITEM: TIMESTEP
320000
ITEM: NUMBER OF ATOMS
128
ITEM: BOX BOUNDS mm mm mm
-6.4000000000000000e+01 6.4000000000000000e+01
-6.4000000000000000e+01 6.4000000000000000e+01
-6.4000000000000000e+01 6.4000000000000000e+01
ITEM: ATOMS id type x y z
1 1 -4.04646 9.66602 5.92927
2 1 -3.87419 8.7528 6.14043
3 1 -4.73116 8.66551 5.96391
4 1 -5.54129 8.157 5.86269
5 1 -5.66619 8.98725 6.26581
6 1 -5.62816 9.4156 5.4303
7 1 -5.93577 8.82993 4.77454
8 1 -6.15649 7.93437 4.55103
9 1 -6.25514 6.99721 4.69119
10 1 -5.6302 7.06944 3.98018
11 1 -5.44436 6.46271 3.25549
12 1 -4.74069 5.87681 3.35598
13 1 -4.40329 6.39671 2.6419
14 1 -4.87044 7.14046 2.2502
15 1 -4.97703 8.03168 2.66845
16 1 -4.12533 8.32279 2.58423
17 1 -3.20396 8.35857 2.65125
18 1 -3.04644 9.30983 2.79913
19 1 -3.64657 9.82654 2.31095
20 1 -4.54169 10.0058 2.6518
21 1 -3.97624 10.6478 3.11961
22 1 -3.80945 10.5226 4.07335
23 1 -3.02526 10.0141 3.99756
24 1 -2.42238 10.4914 3.44832
25 1 -2.61017 11.3336 3.15684
26 1 -2.63589 12.2264 3.34312
27 1 -2.45758 13.1429 3.25732
28 1 -3.21806 13.4729 3.74434
29 1 -2.82409 14.0893 4.30802
30 1 -2.29533 13.6993 5.00174
31 1 -1.6196 14.1923 4.60656
32 1 -0.691282 14.3901 4.4371
33 1 0.166189 14.1362 4.19648
34 1 -0.0237714 13.2995 4.68921
35 1 0.905434 13.1606 4.71343
36 1 1.5244 13.8747 4.7391
37 1 2.23782 13.5005 5.29585
38 1 2.481 12.6944 4.84651
39 1 2.00942 11.9674 5.06464
40 1 1.53334 11.3418 4.48817
41 1 1.06187 10.8447 5.16104
42 1 0.301823 10.3398 5.21951
43 1 0.643926 9.4963 5.30185
44 1 0.580172 9.52023 4.41157
45 1 0.882762 9.81003 3.52623
46 1 1.72075 9.64429 3.20575
47 1 2.33977 9.07778 2.72427
48 1 2.76263 8.43388 2.18967
49 1 2.66434 7.59117 1.74307
50 1 2.04662 6.98212 1.38707
51 1 1.87591 7.6064 0.724732
52 1 1.42427 7.2077 0.0733564
53 1 1.7844 6.37419 -0.195203
54 1 2.67686 6.47542 0.11906
55 1 3.20437 6.9401 -0.499741
56 1 3.47582 7.82674 -0.656156
57 1 4.11297 8.48926 -0.763036
58 1 4.75364 8.97252 -1.28339
59 1 4.64813 9.92786 -1.21614
60 1 5.51622 10.2185 -1.20627
61 1 6.17316 10.8139 -1.50607
62 1 5.84727 10.9678 -2.40141
63 1 6.81756 10.9734 -2.60875
64 1 7.26459 11.22 -1.78019
65 1 8.08216 11.6529 -1.86254
66 1 8.79248 12.1049 -1.48078
67 1 8.29268 12.8586 -1.05392
68 1 7.42009 13.1965 -1.35557
69 1 7.15957 13.328 -2.25235
70 1 6.46229 13.9299 -2.21595
71 1 6.78758 14.1371 -1.38
72 1 6.60436 14.8781 -0.749572
73 1 5.94009 15.2387 -1.30623
74 1 4.97799 15.1822 -1.39781
75 1 4.93015 14.8091 -2.22707
76 1 4.0706 14.332 -2.40571
77 1 3.56993 13.4538 -2.35752
78 1 4.02516 13.4391 -3.1716
79 1 3.74764 13.7088 -3.98778
80 1 4.31249 13.8977 -4.80279
81 1 4.18916 14.6889 -4.3088
82 1 3.39507 15.1586 -4.37439
83 1 2.80141 15.2749 -5.11033
84 1 2.39096 14.5749 -5.63544
85 1 1.76634 15.0983 -4.96537
86 1 1.61326 14.2583 -4.53702
87 1 2.35842 13.6263 -4.61445
88 1 2.10059 13.2193 -5.43569
89 1 2.29986 13.3342 -6.31684
90 1 2.40601 13.6263 -7.19407
91 1 3.28786 13.4934 -6.89643
92 1 3.69105 13.2692 -7.69419
93 1 4.49539 12.8717 -7.8861
94 1 4.10224 12.2042 -7.49201
95 1 3.54481 12.0921 -6.71857
96 1 3.22075 11.8921 -5.8639
97 1 2.86196 11.0682 -6.19535
98 1 3.38965 10.2762 -6.33116
99 1 3.59843 10.6711 -7.16062
100 1 4.4422 11.0523 -7.50343
101 1 4.78671 10.3658 -6.94775
102 1 4.57098 9.39986 -7.10808
103 1 4.6493 9.09672 -7.99123
104 1 5.44817 8.624 -8.16419
105 1 5.19006 8.58749 -9.09762
106 1 5.67048 9.44464 -9.32588
107 1 5.96515 9.65793 -8.47142
108 1 6.74128 9.10464 -8.48544
109 1 7.63091 9.39761 -8.33773
110 1 8.3026 9.70902 -7.75035
111 1 9.17652 10.1264 -7.85015
112 1 9.97779 10.2233 -7.30849
113 1 10.464 9.83077 -6.63604
114 1 10.0816 8.95697 -6.74906
115 1 9.72864 8.13481 -6.23349
116 1 9.47771 7.30738 -5.83126
117 1 9.40199 6.39099 -5.8326
118 1 8.46414 6.2533 -5.81053
119 1 7.67016 5.75718 -5.86272
120 1 6.86378 5.32584 -6.01739
121 1 6.18314 4.86349 -6.42819
122 1 5.35588 4.40833 -6.50001
123 1 4.44146 4.6429 -6.44331
124 1 4.18766 4.31423 -7.28192
125 1 4.91599 3.7015 -7.24299
126 1 4.66248 3.34565 -6.44432
127 1 4.06715 3.58062 -5.66702
128 1 3.79293 4.32883 -5.29965
ITEM: TIMESTEP
330000
ITEM: NUMBER OF ATOMS
128
ITEM: BOX BOUNDS mm mm mm
-6.4000000000000000e+01 6.4000000000000000e+01
-6.4000000000000000e+01 6.4000000000000000e+01
-6.4000000000000000e+01 6.4000000000000000e+01
ITEM: ATOMS id type x y z
1 1 -2.41905 1.08449 2.18963
2 1 -3.34979 1.03906 2.33366
3 1 -3.21326 1.96514 2.45191
4 1 -2.96519 2.92179 2.43585
5 1 -3.67408 3.09772 1.8327
6 1 -4.55073 3.27644 1.58573
7 1 -5.33682 3.71772 1.90299
8 1 -5.53399 3.03764 2.41688
9 1 -6.05051 2.30089 2.64879
10 1 -6.43401 1.84006 1.89471
11 1 -7.17922 1.76078 1.31186
12 1 -7.40891 2.56774 0.914057
13 1 -6.91711 2.92918 1.55345
14 1 -6.81515 3.64235 2.1386
15 1 -6.18931 4.34164 2.34126
16 1 -5.88633 4.47787 1.4617
17 1 -5.55585 4.89736 0.632693
18 1 -5.73369 5.81837 0.686164
19 1 -5.07445 5.52041 1.34329
20 1 -4.62063 5.7766 2.13484
21 1 -3.93976 6.19664 2.60569
22 1 -3.48448 7.02931 2.37346
23 1 -4.13259 7.30369 1.70677
24 1 -4.08092 8.13555 1.37132
25 1 -3.87438 9.08753 1.41328
26 1 -3.06989 9.19586 1.87438
27 1 -2.76484 9.97765 2.31797
28 1 -1.91109 10.0964 2.67521
29 1 -1.00982 10.023 2.95892
30 1 -0.846161 10.9319 2.70923
31 1 -0.272239 11.4103 2.15341
32 1 0.423564 12.0462 2.2054
33 1 0.293152 11.6938 3.03078
34 1 0.841248 11.2884 3.67513
35 1 1.65574 11.0213 3.42378
36 1 1.70221 10.7408 2.48805
37 1 0.84143 10.4725 2.6571
38 1 0.317656 10.2534 3.39597
39 1 -0.122404 10.1595 4.19343
40 1 -0.892809 9.67207 3.98098
41 1 -1.08976 9.53591 4.88864
42 1 -0.574602 9.77765 5.66715
43 1 -0.445207 10.5624 5.16735
44 1 -0.879129 11.2103 5.64641
45 1 -0.784755 11.7217 4.81377
46 1 -0.0621939 12.2944 5.00746
47 1 0.648921 11.781 5.36724
48 1 1.21642 12.2997 5.95618
49 1 1.82592 11.6238 5.69711
50 1 2.17067 11.5369 4.76602
51 1 2.99173 11.9448 4.89789
52 1 3.3834 11.1387 4.78032
53 1 3.89755 10.2964 4.66794
54 1 3.74581 9.58908 4.10744
55 1 4.62451 9.32022 4.00559
56 1 4.54055 10.0817 3.46923
57 1 4.52167 9.59382 2.67629
58 1 3.74846 9.84072 2.12192
59 1 3.87483 10.028 1.21558
60 1 3.8743 9.52987 0.479467
61 1 4.7785 9.56949 0.560502
62 1 5.26962 9.11601 -0.136692
63 1 5.55684 8.29681 -0.501031
64 1 6.46976 8.32448 -0.24331
65 1 7.08099 8.3646 -0.963044
66 1 6.84357 9.24602 -0.969896
67 1 7.27601 9.81358 -0.368418
68 1 7.00913 10.3924 0.30781
69 1 7.62116 10.9662 -0.100793
70 1 7.60339 11.8882 -0.317216
71 1 7.49911 12.673 -0.844364
72 1 8.38577 12.6658 -1.24049
73 1 8.19731 13.4858 -1.72719
74 1 8.52672 13.8779 -2.49586
75 1 8.60513 13.6767 -3.45891
76 1 8.56987 14.3576 -4.11928
77 1 7.65459 14.3354 -3.87501
78 1 6.63336 14.2707 -3.92415
79 1 6.1841 14.2999 -4.81475
80 1 6.10116 13.45 -5.03299
81 1 5.71214 12.9658 -4.37358
82 1 5.02665 12.5684 -3.81454
83 1 4.29733 12.8372 -4.29959
84 1 3.46958 13.2554 -4.15421
85 1 2.69895 13.5364 -3.74872
86 1 2.34178 13.897 -2.97125
87 1 1.6386 13.3032 -3.14203
88 1 1.94014 12.5944 -3.75994
89 1 1.03555 12.3664 -4.02995
90 1 0.562139 11.609 -4.17334
91 1 0.736821 10.7424 -4.05966
92 1 1.2753 10.0264 -4.214
93 1 2.11739 9.65146 -4.03971
94 1 2.87375 10.1173 -3.96792
95 1 3.75057 9.75068 -4.1368
96 1 4.09019 10.5425 -3.73575
97 1 5.01403 10.5809 -3.85764
98 1 5.28972 11.0428 -3.09242
99 1 5.78434 11.8108 -3.20181
100 1 5.34038 12.4039 -2.58578
101 1 4.61802 12.1863 -2.06054
102 1 4.81691 11.4182 -1.5507
103 1 4.8223 10.7979 -0.863745
104 1 4.7297 9.96515 -1.29655
105 1 4.38565 9.18076 -1.5814
106 1 4.67182 8.79745 -2.45238
107 1 5.18999 8.4475 -3.1596
108 1 5.51044 7.88868 -2.48544
109 1 5.90198 7.02979 -2.52879
110 1 6.79696 7.19957 -2.92114
111 1 6.92552 6.85262 -2.03701
112 1 6.74936 5.91663 -1.91518
113 1 6.69663 4.99427 -1.58214
114 1 5.96398 4.44672 -1.72377
115 1 6.57153 3.88355 -1.26588
116 1 7.0265 3.45689 -1.99547
117 1 7.38502 2.97153 -2.70066
118 1 6.82086 2.76718 -3.52949
119 1 6.20748 2.05133 -3.40699
120 1 5.35698 1.93071 -3.08873
121 1 4.47019 1.54947 -2.99295
122 1 4.69406 1.10613 -3.77985
123 1 3.81789 0.993384 -4.08569
124 1 3.98876 1.10611 -4.99641
125 1 3.08484 1.17529 -4.86061
126 1 2.68693 1.62986 -4.13336
127 1 1.78947 1.83785 -3.95695
128 1 1.60833 2.391 -4.68794
ITEM: TIMESTEP
340000
ITEM: NUMBER OF ATOMS
128
ITEM: BOX BOUNDS mm mm mm
-6.4000000000000000e+01 6.4000000000000000e+01
-6.4000000000000000e+01 6.4000000000000000e+01
-6.4000000000000000e+01 6.4000000000000000e+01
ITEM: ATOMS id type x y z
1 1 1.88356 3.87591 8.45722
2 1 1.14553 3.27714 8.7181
3 1 1.06695 2.55734 8.09271
4 1 0.668403 2.18244 7.29871
5 1 -0.140875 2.62043 7.03871
6 1 -0.58462 3.39555 6.66838
7 1 -1.07637 3.88103 7.30387
8 1 -1.19028 4.62093 6.74712
9 1 -0.895425 4.68792 5.87491
10 1 -0.617003 4.47575 4.99053
11 1 -0.648245 5.19866 4.41254
12 1 -1.11112 5.01281 3.60336
13 1 -1.06511 4.2337 3.09844
14 1 -0.718226 4.07622 2.17932
15 1 -1.48751 3.99755 1.72017
16 1 -1.63873 3.68202 0.866045
17 1 -1.21386 3.91502 0.107677
18 1 -0.880882 4.5351 0.69626
19 1 -0.578858 5.12244 -0.0205795
20 1 -0.0628725 5.79629 -0.375313
21 1 -0.884553 6.3156 -0.0803181
22 1 -1.31472 7.05504 0.22674
23 1 -1.72956 6.91182 -0.622839
24 1 -2.25083 7.69638 -0.67929
25 1 -2.23102 8.6263 -0.704993
26 1 -2.20721 9.40021 -0.195655
27 1 -2.14921 10.0535 -0.889698
28 1 -2.39905 10.7379 -0.297225
29 1 -2.89062 10.7644 0.481033
30 1 -2.8592 11.6478 0.0279016
31 1 -2.0216 12.0712 0.380018
32 1 -1.29106 11.999 -0.176362
33 1 -0.956715 12.9197 -0.323255
34 1 -0.90956 12.8628 0.603404
35 1 -1.41144 13.0633 1.35373
36 1 -1.73187 13.3624 2.17707
37 1 -1.21456 13.0135 2.86856
38 1 -0.811397 12.1632 2.99499
39 1 -0.0124123 11.6931 2.92353
40 1 0.647702 10.956 2.76512
41 1 1.59304 10.9633 3.1395
42 1 2.30913 10.7704 3.67126
43 1 2.57614 10.9547 4.56851
44 1 2.90728 11.6966 5.01313
45 1 2.93281 11.6784 5.93369
46 1 3.04862 10.9708 6.52988
47 1 2.27299 10.7124 6.95412
48 1 2.56545 9.81779 7.16556
49 1 3.08097 9.22482 6.67899
50 1 2.32755 9.04743 6.17063
51 1 2.00263 8.36082 6.65316
52 1 1.71381 8.24317 7.54835
53 1 1.21304 8.9186 7.96532
54 1 0.616496 8.78004 7.28095
55 1 0.525713 8.6374 6.31664
56 1 0.878562 8.34148 5.49805
57 1 0.627883 8.85708 4.75407
58 1 0.858219 8.33894 3.97418
59 1 0.898858 8.98329 3.27175
60 1 1.08186 9.86278 3.36168
61 1 1.92959 9.66039 3.07897
62 1 1.55556 9.46971 2.24049
63 1 2.34542 9.54555 1.69763
64 1 2.80972 9.154 2.33564
65 1 2.82231 10.0678 2.61448
66 1 3.26392 10.9304 2.45576
67 1 3.18631 11.8353 2.88347
68 1 3.33714 11.1416 3.5788
69 1 4.24644 11.2846 3.33192
70 1 5.07623 11.5812 3.12179
71 1 5.27251 12.249 2.44496
72 1 6.00956 11.6391 2.33828
73 1 6.80759 11.1523 2.4964
74 1 7.50477 11.6821 2.8342
75 1 8.38129 11.4319 2.97088
76 1 8.63438 11.5808 2.08775
77 1 9.32275 11.4858 1.47561
78 1 8.91283 11.3309 0.689102
79 1 8.82882 11.9592 0.00901994
80 1 9.29698 12.7331 -0.193593
81 1 8.55888 13.2169 -0.326003
82 1 8.27528 12.9032 -1.13216
83 1 7.33556 13.2244 -1.15857
84 1 7.38865 12.2868 -1.30044
85 1 7.7756 11.8752 -0.488642
86 1 7.17976 12.5259 -0.249828
87 1 6.30936 12.3235 -0.599721
88 1 6.06934 12.2317 -1.58309
89 1 6.39194 12.175 -2.47155
90 1 6.2558 11.3037 -2.13381
91 1 5.70604 10.7901 -2.67442
92 1 4.79486 10.9661 -2.37189
93 1 4.12888 10.8864 -3.08773
94 1 4.14935 9.94949 -3.15268
95 1 4.19788 9.14282 -3.54923
96 1 4.71364 8.42926 -3.9785
97 1 4.141 7.77035 -4.38927
98 1 3.70273 7.35611 -5.1345
99 1 3.00358 7.38063 -5.71714
100 1 2.82541 6.82767 -4.93186
101 1 2.8758 6.15308 -4.33034
102 1 2.4843 5.39449 -3.95303
103 1 3.15402 4.82527 -3.49962
104 1 3.73443 4.11193 -3.38072
105 1 4.0457 4.19589 -2.46848
106 1 3.77871 3.22253 -2.69353
107 1 4.48441 2.57264 -2.74916
108 1 4.65021 1.74543 -2.26913
109 1 4.43176 1.58329 -1.34058
110 1 3.94829 1.74903 -0.573101
111 1 3.35802 1.61436 -1.28763
112 1 3.38567 0.697561 -1.64311
113 1 3.63205 0.0303004 -2.24795
114 1 2.74228 -0.30813 -2.15548
115 1 3.1484 -0.710735 -2.83067
116 1 3.81463 -1.41937 -2.91931
117 1 3.4909 -2.12637 -3.3708
118 1 3.05642 -2.8294 -3.786
119 1 3.07454 -3.51825 -4.36839
120 1 2.20136 -3.58737 -4.44001
121 1 1.79952 -2.71187 -4.25908
122 1 1.06848 -2.06602 -4.32929
123 1 0.896335 -2.23751 -5.19527
124 1 0.420078 -2.96442 -4.84592
125 1 0.745573 -3.16195 -5.77164
126 1 -0.112313 -2.63781 -5.72302
127 1 -0.829612 -3.16109 -5.39697
128 1 -0.458826 -4.01919 -5.50376
ITEM: TIMESTEP
350000
ITEM: NUMBER OF ATOMS
128
ITEM: BOX BOUNDS mm mm mm
-6.4000000000000000e+01 6.4000000000000000e+01
-6.4000000000000000e+01 6.4000000000000000e+01
-6.4000000000000000e+01 6.4000000000000000e+01
ITEM: ATOMS id type x y z
1 1 0.298122 2.58805 9.1301
2 1 -0.396403 2.2321 9.61318
3 1 0.0139209 1.42983 9.59587
4 1 -0.248767 1.70535 8.67231
5 1 -1.05385 2.15288 8.4039
6 1 -2.00552 2.09783 8.23642
7 1 -2.55204 2.6126 7.71758
8 1 -3.46171 2.50346 7.51607
9 1 -3.87425 2.28786 6.7158
10 1 -3.59716 2.58348 5.89037
11 1 -3.12137 2.52402 5.10558
12 1 -2.54231 2.75591 5.78545
13 1 -2.16674 2.91622 4.93388
14 1 -1.64121 2.51195 4.21845
15 1 -0.87469 2.31612 4.74214
16 1 -0.676243 2.65448 3.82155
17 1 -0.537677 3.01742 2.97702
18 1 -1.14088 2.54508 2.42616
19 1 -1.58715 2.36165 1.64311
20 1 -1.88725 1.80319 0.886819
21 1 -1.16419 1.6547 0.287104
22 1 -0.642829 2.30351 -0.131425
23 1 0.152205 2.0107 -0.702037
24 1 0.380556 2.82544 -0.272385
25 1 0.50461 3.76939 -0.326909
26 1 1.23577 4.14599 0.169685
27 1 1.71804 4.99774 0.522293
28 1 1.09589 5.12581 1.23702
29 1 0.211084 5.40274 1.07311
30 1 0.581022 6.01948 1.68695
31 1 1.07907 6.7715 1.37246
32 1 0.863275 7.14029 2.25847
33 1 1.37011 7.69911 2.87133
34 1 1.82412 8.41193 3.24586
35 1 1.01993 8.27094 3.76348
36 1 0.19372 8.45973 3.34296
37 1 0.760546 9.12816 2.93487
38 1 0.669901 9.88958 3.40758
39 1 0.304754 10.4284 2.76971
40 1 0.523582 10.9766 3.52809
41 1 0.775223 11.7468 4.0657
42 1 0.993266 12.3821 4.70444
43 1 0.745206 11.9116 5.47083
44 1 0.761665 12.763 5.93388
45 1 -0.0684957 13.0387 5.52965
46 1 -0.816274 13.6428 5.58372
47 1 -1.21201 13.7348 6.44069
48 1 -0.958311 13.682 7.3423
49 1 -0.57828 14.4109 7.78587
50 1 0.314513 14.1676 7.96545
51 1 0.783039 14.1349 7.15938
52 1 1.50602 13.68 7.44978
53 1 2.23498 13.6254 6.94145
54 1 2.25432 12.634 6.93515
55 1 3.01065 12.4503 6.36575
56 1 2.64638 11.6654 6.03132
57 1 2.84444 10.9641 6.70834
58 1 2.15573 10.3503 6.58056
59 1 1.3972 10.2581 5.94576
60 1 1.83084 9.39068 5.84279
61 1 1.50723 8.68587 5.28125
62 1 1.10579 7.89968 4.97813
63 1 0.7601 7.08155 4.71085
64 1 1.52121 6.57963 4.38376
65 1 2.15554 7.0206 3.7526
66 1 2.37015 6.88447 2.82252
67 1 2.99928 6.32853 2.30482
68 1 3.93571 6.21072 2.1327
69 1 4.68296 6.71443 2.48831
70 1 4.61305 6.91801 3.4163
71 1 5.53464 7.13863 3.31587
72 1 6.25604 7.33303 2.73253
73 1 6.72617 7.73451 2.05199
74 1 7.25173 7.04351 2.46267
75 1 7.22975 7.75087 3.10625
76 1 6.4904 8.36654 3.11629
77 1 6.62292 8.91544 2.36158
78 1 6.53353 9.81119 2.14396
79 1 7.32947 10.0573 1.71578
80 1 7.6579 10.3534 2.52562
81 1 7.49082 10.8912 3.31181
82 1 6.69336 11.0976 2.86259
83 1 6.58019 11.5809 2.05974
84 1 5.9533 11.3953 1.39737
85 1 5.27562 11.9063 1.06623
86 1 4.9967 11.2112 0.575433
87 1 5.54268 11.1386 -0.196577
88 1 5.22384 10.216 -0.289252
89 1 5.50636 9.84241 -1.08795
90 1 5.83459 9.29161 -1.74819
91 1 6.35226 9.17867 -2.50399
92 1 7.17771 8.64828 -2.51217
93 1 7.70474 8.09621 -1.89657
94 1 8.03246 7.26185 -2.11246
95 1 7.73278 6.60431 -1.48373
96 1 8.18543 6.28557 -0.691159
97 1 8.35769 5.42798 -0.973348
98 1 9.09886 4.9123 -0.636335
99 1 10.0103 4.99534 -0.966194
100 1 10.6684 5.3416 -1.63779
101 1 10.9388 4.67709 -2.27314
102 1 10.7025 4.1967 -1.4825
103 1 10.8433 4.26931 -0.552098
104 1 10.7334 3.40735 -0.288871
105 1 9.93933 3.90654 -0.143731
106 1 9.45321 3.18196 0.225981
107 1 9.86276 2.28969 0.237278
108 1 9.40225 1.487 0.337411
109 1 8.52965 1.16371 0.526304
110 1 7.92713 0.383064 0.433698
111 1 7.06559 0.0465477 0.449088
112 1 6.44914 -0.445601 -0.0191656
113 1 7.11804 -1.06269 0.310683
114 1 7.6067 -1.30943 1.08127
115 1 7.52121 -2.17874 0.658037
116 1 6.78545 -2.71061 0.904382
117 1 6.7293 -3.65127 0.941827
118 1 7.22412 -4.45096 0.620426
119 1 7.85369 -4.92068 0.091681
120 1 7.95353 -5.17982 -0.808202
121 1 8.55032 -4.63536 -1.20453
122 1 7.90675 -3.97137 -1.399
123 1 7.77984 -3.18913 -1.84602
124 1 7.08266 -3.63945 -2.25185
125 1 6.42448 -2.78287 -2.26053
126 1 5.65988 -2.4941 -2.66812
127 1 6.28055 -2.07529 -3.26751
128 1 6.91314 -2.79436 -3.34367
ITEM: TIMESTEP
360000
ITEM: NUMBER OF ATOMS
128
ITEM: BOX BOUNDS mm mm mm
-6.4000000000000000e+01 6.4000000000000000e+01
-6.4000000000000000e+01 6.4000000000000000e+01
-6.4000000000000000e+01 6.4000000000000000e+01
ITEM: ATOMS id type x y z
1 1 -4.46965 3.54882 5.22561
2 1 -5.06102 3.80154 5.95949
3 1 -5.84994 4.30182 5.77038
4 1 -6.57976 4.28725 6.30571
5 1 -7.52445 3.94676 6.11661
6 1 -7.47863 4.41227 5.32237
7 1 -6.63209 4.49751 4.95679
8 1 -6.2083 5.16917 4.45763
9 1 -5.5515 5.82558 4.71941
10 1 -5.45546 5.94261 3.77419
11 1 -5.2297 6.45829 2.99199
12 1 -4.31002 6.72144 3.21139
13 1 -3.48368 7.06075 3.07872
14 1 -2.80331 7.59487 2.73605
15 1 -2.48631 8.50443 2.94853
16 1 -1.56034 8.49843 2.64875
17 1 -0.96884 8.25063 1.88159
18 1 -0.561659 8.64491 2.62997
19 1 -0.869569 9.46696 2.11996
20 1 -0.367127 10.092 2.57752
21 1 -1.02562 10.7393 2.54566
22 1 -0.632888 10.9271 1.7023
23 1 -1.30816 11.1557 1.10326
24 1 -1.50938 11.9763 0.661327
25 1 -1.91355 12.1557 -0.170075
26 1 -1.27017 12.7607 -0.0789551
27 1 -1.47215 13.631 -0.39245
28 1 -1.62575 14.2253 0.365928
29 1 -2.17876 14.9427 0.539937
30 1 -3.06662 14.7156 0.885961
31 1 -2.72174 14.7885 1.76289
32 1 -2.47708 13.8597 1.78235
33 1 -2.17149 13.0449 2.16483
34 1 -2.1904 12.8245 3.08768
35 1 -2.08303 12.3582 3.86386
36 1 -3.03892 12.3525 3.89201
37 1 -2.80509 12.0021 4.75743
38 1 -2.28767 11.2963 5.17723
39 1 -2.70655 11.2223 5.9954
40 1 -3.27488 10.5638 5.71361
41 1 -3.29173 10.3583 4.79892