ITEM: TIMESTEP
3120000
ITEM: NUMBER OF ATOMS
128
ITEM: BOX BOUNDS mm mm mm
-6.4000000000000000e+01 6.4000000000000000e+01
-6.4000000000000000e+01 6.4000000000000000e+01
-6.4000000000000000e+01 6.4000000000000000e+01
ITEM: ATOMS id type x y z
1 1 -58.9713 10.2589 28.2499
2 1 -58.1201 10.5347 27.9623
3 1 -57.2227 10.7671 27.7512
4 1 -56.3062 10.9136 27.4699
5 1 -55.3678 11.0628 27.3368
6 1 -54.4755 11.2748 27.2896
7 1 -53.5863 11.5797 27.2737
8 1 -52.6754 11.7554 27.3467
9 1 -51.7561 11.925 27.4277
10 1 -50.8467 12.0817 27.4231
11 1 -49.9183 12.249 27.3366
12 1 -49.0039 12.4708 27.2133
13 1 -48.1913 12.8183 26.9255
14 1 -47.4127 13.178 26.6503
15 1 -46.6935 13.4793 26.2712
16 1 -45.8919 13.8382 25.9272
17 1 -45.1088 14.3011 25.6788
18 1 -44.3464 14.7858 25.5007
19 1 -43.6477 15.3692 25.3366
20 1 -42.9204 15.9287 25.1718
21 1 -42.2071 16.4504 24.9273
22 1 -41.5649 17.008 24.6723
23 1 -40.8506 17.6179 24.4568
24 1 -40.1445 18.259 24.2052
25 1 -39.5377 18.9121 23.8096
26 1 -38.9308 19.586 23.4897
27 1 -38.3112 20.27 23.1766
28 1 -37.7508 20.9337 22.8331
29 1 -37.1885 21.5669 22.381
30 1 -36.6721 22.2697 22.0338
31 1 -36.0393 22.9694 21.7529
32 1 -35.4608 23.6643 21.4946
33 1 -34.8305 24.26 21.2399
34 1 -34.159 24.8401 20.8162
35 1 -33.5394 25.4195 20.4071
36 1 -32.9113 25.9048 19.9508
37 1 -32.3021 26.3474 19.3733
38 1 -31.6379 26.8111 18.885
39 1 -30.9755 27.2686 18.3729
40 1 -30.2791 27.8117 18
41 1 -29.5398 28.1993 17.5709
42 1 -28.8343 28.4901 17.0658
43 1 -28.122 28.8089 16.5566
44 1 -27.2975 29.1062 16.1543
45 1 -26.4886 29.3281 15.8194
46 1 -25.6571 29.5634 15.4141
47 1 -24.8655 29.7229 14.9705
48 1 -24.0536 29.9212 14.5696
49 1 -23.1954 30.1555 14.2059
50 1 -22.4178 30.4768 13.8538
51 1 -21.5914 30.593 13.3981
52 1 -20.6712 30.6422 13.0547
53 1 -19.8059 30.653 12.7195
54 1 -18.9212 30.601 12.4498
55 1 -18.0314 30.6481 12.14
56 1 -17.1279 30.7768 11.8272
57 1 -16.3059 30.8468 11.5411
58 1 -15.4154 30.9271 11.1966
59 1 -14.5664 31.0107 10.8598
60 1 -13.6957 31.1223 10.5372
61 1 -12.8534 31.4895 10.2534
62 1 -12.0354 31.8867 9.96045
63 1 -11.2196 32.2539 9.58984
64 1 -10.4124 32.6009 9.20009
65 1 -9.58688 32.9562 8.87533
66 1 -8.85813 33.3952 8.46563
67 1 -8.16706 33.833 8.02215
68 1 -7.38173 34.1452 7.59275
69 1 -6.605 34.4285 7.18119
70 1 -5.80062 34.6018 6.71464
71 1 -5.00601 34.7219 6.21001
72 1 -4.16673 34.7678 5.76216
73 1 -3.41054 34.805 5.20038
74 1 -2.77352 34.7141 4.53827
75 1 -2.24843 34.6688 3.81092
76 1 -1.72616 34.4125 3.06212
77 1 -1.24706 34.0708 2.33472
78 1 -0.682238 33.7176 1.57842
79 1 -0.00738756 33.4844 0.959788
80 1 0.746619 33.4019 0.363475
81 1 1.48098 33.1853 -0.225478
82 1 2.17943 32.8097 -0.695463
83 1 2.96344 32.5864 -1.17644
84 1 3.71621 32.2524 -1.55721
85 1 4.53781 31.9489 -1.83788
86 1 5.41333 31.7772 -2.10735
87 1 6.31112 31.5147 -2.34503
88 1 7.17293 31.2231 -2.60066
89 1 7.97206 30.7587 -2.76897
90 1 8.77107 30.2319 -2.98162
91 1 9.64366 29.8721 -3.28733
92 1 10.4431 29.5975 -3.71582
93 1 11.2239 29.195 -4.01637
94 1 11.9797 28.6453 -4.34901
95 1 12.5224 28.0194 -4.8127
96 1 13.1493 27.5509 -5.23671
97 1 13.8169 27.0121 -5.72394
98 1 14.4743 26.6064 -6.31592
99 1 15.0016 26.239 -6.98325
100 1 15.6355 25.7321 -7.45359
101 1 16.2612 25.3434 -8.02994
102 1 16.9278 24.9778 -8.59526
103 1 17.6147 24.6748 -9.1933
104 1 18.3418 24.4055 -9.71994
105 1 19.0071 24.1352 -10.2563
106 1 19.7587 23.8977 -10.8464
107 1 20.4457 23.5156 -11.3146
108 1 21.1644 23.1884 -11.9299
109 1 21.8357 22.9047 -12.5956
110 1 22.5242 22.5834 -13.1739
111 1 23.2009 22.2255 -13.721
112 1 23.8528 21.8085 -14.2532
113 1 24.4666 21.424 -14.884
114 1 25.0267 21.0827 -15.5162
115 1 25.6311 20.7952 -16.1477
116 1 26.2551 20.4457 -16.784
117 1 26.9028 20.2295 -17.4125
118 1 27.6271 20.0201 -17.9745
119 1 28.3437 19.884 -18.6025
120 1 29.1146 19.752 -19.1115
121 1 29.9097 19.6434 -19.6239
122 1 30.6351 19.6201 -20.201
123 1 31.4514 19.4517 -20.6187
124 1 32.3058 19.292 -21.0661
125 1 33.0882 19.1447 -21.5543
126 1 33.9321 19.0865 -21.957
127 1 34.7863 19.0438 -22.2401
128 1 35.675 19.0713 -22.617
ITEM: TIMESTEP
3130000
ITEM: NUMBER OF ATOMS
128
ITEM: BOX BOUNDS mm mm mm
-6.4000000000000000e+01 6.4000000000000000e+01
-6.4000000000000000e+01 6.4000000000000000e+01
-6.4000000000000000e+01 6.4000000000000000e+01
ITEM: ATOMS id type x y z
1 1 -55.3561 10.9177 26.9943
2 1 -54.5177 11.2204 26.7308
3 1 -53.6722 11.4811 26.389
4 1 -52.8612 11.7418 25.9846
5 1 -52.0948 12.0168 25.6447
6 1 -51.2369 12.1955 25.1965
7 1 -50.3863 12.3054 24.7587
8 1 -49.555 12.4223 24.2999
9 1 -48.6791 12.5989 23.9267
10 1 -47.9594 12.8314 23.4295
11 1 -47.073 13.1328 23.0439
12 1 -46.2225 13.4432 22.8216
13 1 -45.3219 13.8385 22.6554
14 1 -44.5557 14.2688 22.3066
15 1 -43.8118 14.7318 21.9453
16 1 -43.1604 15.3193 21.6433
17 1 -42.4745 15.9643 21.3995
18 1 -41.8518 16.6124 21.1726
19 1 -41.1968 17.2894 21.0669
20 1 -40.4834 17.8523 20.9922
21 1 -39.7505 18.4749 20.8409
22 1 -39.0583 19.0415 20.682
23 1 -38.3339 19.5774 20.3732
24 1 -37.4886 20.0359 20.2258
25 1 -36.585 20.5949 20.172
26 1 -35.7759 21.0263 20.1125
27 1 -34.9112 21.3957 20.0505
28 1 -33.9692 21.8157 20.014
29 1 -33.076 22.1462 20.0228
30 1 -32.1106 22.2059 20.116
31 1 -31.1828 22.234 20.214
32 1 -30.2515 22.3854 20.3257
33 1 -29.3976 22.5595 20.5404
34 1 -28.5046 22.7527 20.5616
35 1 -27.5393 22.9927 20.6203
36 1 -26.6406 23.3456 20.6438
37 1 -25.7544 23.5383 20.611
38 1 -24.8315 23.7102 20.6381
39 1 -23.9271 23.9446 20.4041
40 1 -23.0649 24.1752 20.1366
41 1 -22.2873 24.6132 19.8003
42 1 -21.6024 25.0845 19.396
43 1 -20.9617 25.6572 18.9878
44 1 -20.3825 26.2164 18.4616
45 1 -19.88 26.797 17.9512
46 1 -19.2871 27.313 17.3646
47 1 -18.755 27.7684 16.759
48 1 -18.2549 28.1773 16.0453
49 1 -17.8075 28.6284 15.301
50 1 -17.4838 29.0802 14.5744
51 1 -17.0884 29.5335 13.859
52 1 -16.6096 30.0222 13.2422
53 1 -16.008 30.5239 12.6645
54 1 -15.3658 30.9739 12.1414
55 1 -14.6734 31.4252 11.6264
56 1 -13.9125 31.9023 11.1362
57 1 -13.1662 32.3094 10.6936
58 1 -12.4293 32.6668 10.2651
59 1 -11.6463 32.9047 9.84331
60 1 -10.7033 32.9582 9.49351
61 1 -9.90433 32.9413 9.05482
62 1 -9.08197 32.8477 8.60938
63 1 -8.23324 32.9145 8.18014
64 1 -7.41915 32.8631 7.71805
65 1 -6.56056 32.818 7.35451
66 1 -5.74368 32.9013 6.93287
67 1 -4.95941 32.9522 6.47743
68 1 -4.11749 32.9753 6.05818
69 1 -3.21774 32.972 5.77405
70 1 -2.29399 32.9073 5.53116
71 1 -1.40219 32.7885 5.34011
72 1 -0.502948 32.7105 5.15262
73 1 0.40667 32.7173 4.87307
74 1 1.26023 32.6388 4.47625
75 1 2.00908 32.605 3.93183
76 1 2.71754 32.6324 3.32928
77 1 3.38461 32.6219 2.63531
78 1 3.92969 32.5556 1.90206
79 1 4.53465 32.3309 1.23003
80 1 5.19335 32.1958 0.560137
81 1 5.78618 32.1148 -0.102717
82 1 6.38978 32.1129 -0.856695
83 1 6.80563 32.0485 -1.74237
84 1 7.23135 31.9626 -2.56203
85 1 7.61088 31.7547 -3.41948
86 1 8.03173 31.5814 -4.20656
87 1 8.52699 31.4213 -5.04059
88 1 9.01762 31.3063 -5.81983
89 1 9.47874 31.0985 -6.633
90 1 9.89988 30.7036 -7.37713
91 1 10.4262 30.3074 -8.07325
92 1 10.9267 29.9543 -8.74349
93 1 11.451 29.6535 -9.46155
94 1 12.0037 29.3053 -10.1078
95 1 12.6619 28.9705 -10.6872
96 1 13.384 28.5608 -11.1811
97 1 14.202 28.2527 -11.6708
98 1 15.0084 27.9951 -12.0348
99 1 15.8584 27.7935 -12.2824
100 1 16.7013 27.4625 -12.6546
101 1 17.5336 27.1692 -12.9271
102 1 18.3809 26.8584 -13.195
103 1 19.2463 26.5085 -13.3959
104 1 20.0617 26.2243 -13.7924
105 1 20.808 25.9317 -14.2917
106 1 21.4839 25.4159 -14.7688
107 1 22.0867 24.8957 -15.3077
108 1 22.6499 24.3013 -15.741
109 1 23.2258 23.6063 -16.1795
110 1 23.793 22.9895 -16.5493
111 1 24.4228 22.4129 -16.8296
112 1 25.0075 21.6771 -17.1087
113 1 25.626 21.0835 -17.4473
114 1 26.2687 20.5114 -17.7344
115 1 26.9198 19.9302 -17.981
116 1 27.5856 19.3253 -18.2997
117 1 28.2996 18.6863 -18.4905
118 1 28.9431 18.0058 -18.7038
119 1 29.6247 17.3254 -18.9147
120 1 30.162 16.5602 -19.1651
121 1 30.592 15.7664 -19.4148
122 1 30.9874 14.8923 -19.5544
123 1 31.3079 14.0644 -19.7808
124 1 31.4969 13.1842 -20.0089
125 1 31.6575 12.2263 -20.2414
126 1 31.8408 11.3876 -20.5656
127 1 31.9791 10.5233 -20.8721
128 1 32.179 9.64516 -21.2258
ITEM: TIMESTEP
3140000
ITEM: NUMBER OF ATOMS
128
ITEM: BOX BOUNDS mm mm mm
-6.4000000000000000e+01 6.4000000000000000e+01
-6.4000000000000000e+01 6.4000000000000000e+01
-6.4000000000000000e+01 6.4000000000000000e+01
ITEM: ATOMS id type x y z
1 1 -53.7442 7.42526 21.274
2 1 -53.0125 7.98647 21.4498
3 1 -52.3019 8.53298 21.6469
4 1 -51.4868 9.10323 21.8901
5 1 -50.8118 9.59635 22.2889
6 1 -50.1074 10.0235 22.681
7 1 -49.3383 10.4725 23.0096
8 1 -48.7029 11.0507 23.2726
9 1 -48.0741 11.6572 23.5959
10 1 -47.4112 12.1979 23.9041
11 1 -46.7952 12.8321 24.1864
12 1 -46.1736 13.4459 24.4193
13 1 -45.5432 14.0674 24.7753
14 1 -44.8461 14.6662 24.9618
15 1 -44.133 15.2536 25.0323
16 1 -43.4505 15.8494 25.0049
17 1 -42.7393 16.5261 25.0621
18 1 -41.9419 17.0709 25.0034
19 1 -41.0673 17.4743 25.0061
20 1 -40.1801 17.9046 24.9767
21 1 -39.3243 18.3026 25.0606
22 1 -38.5316 18.7103 25.0279
23 1 -37.6324 19.1102 24.9942
24 1 -36.7265 19.4843 25.0236
25 1 -35.9007 19.9209 24.9864
26 1 -35.1038 20.321 24.8863
27 1 -34.3141 20.8315 24.9306
28 1 -33.5347 21.3711 25.0469
29 1 -32.767 22.0516 25.1278
30 1 -32.0744 22.6573 25.1843
31 1 -31.2826 23.2039 25.1292
32 1 -30.5867 23.8492 24.9748
33 1 -29.8724 24.461 24.8617
34 1 -29.128 25.0247 24.6688
35 1 -28.3314 25.3906 24.3219
36 1 -27.4971 25.6437 23.9217
37 1 -26.7389 25.9167 23.3442
38 1 -26.0997 26.1719 22.7518
39 1 -25.443 26.3109 22.1517
40 1 -24.7374 26.4806 21.5569
41 1 -23.9298 26.573 21.0671
42 1 -23.1547 26.596 20.4861
43 1 -22.5337 26.6719 19.7811
44 1 -22.0447 26.8801 19.038
45 1 -21.4805 27.1118 18.3016
46 1 -20.9345 27.3415 17.5849
47 1 -20.3343 27.6158 16.9146
48 1 -19.7973 27.8819 16.2207
49 1 -19.1899 28.1177 15.5459
50 1 -18.715 28.3713 14.7872
51 1 -18.1922 28.6733 14.0686
52 1 -17.6908 28.9893 13.3994
53 1 -17.1701 29.3279 12.6975
54 1 -16.6298 29.7471 12.0353
55 1 -16.1292 30.1713 11.4143
56 1 -15.6042 30.62 10.7405
57 1 -15.0759 31.0817 10.1398
58 1 -14.4908 31.588 9.63566
59 1 -13.8542 32.0457 9.05557
60 1 -13.2451 32.5179 8.54235
61 1 -12.6053 32.9209 7.99893
62 1 -11.9033 33.2131 7.48416
63 1 -11.1359 33.4759 6.94501
64 1 -10.4407 33.6895 6.35881
65 1 -9.68392 33.8793 5.89449
66 1 -8.90782 33.9732 5.3707
67 1 -8.14135 34.1417 4.88191
68 1 -7.34346 34.2567 4.34471
69 1 -6.57967 34.3779 3.79102
70 1 -5.78882 34.5917 3.36571
71 1 -4.88488 34.8372 2.96775
72 1 -4.00557 34.9763 2.70329
73 1 -3.1535 35.1086 2.34962
74 1 -2.21796 35.0876 1.97313
75 1 -1.32323 35.1105 1.60544
76 1 -0.498676 35.0828 1.15009
77 1 0.219477 34.986 0.602354
78 1 1.0579 34.7173 0.128357
79 1 1.86443 34.4752 -0.322631
80 1 2.69017 34.3935 -0.705811
81 1 3.45909 34.2191 -1.22571
82 1 4.22152 34.0371 -1.76868
83 1 4.99212 33.9171 -2.311
84 1 5.71865 33.7776 -2.87956
85 1 6.39866 33.5913 -3.52324
86 1 7.11 33.5989 -4.12214
87 1 7.87869 33.65 -4.77581
88 1 8.53545 33.5419 -5.43305
89 1 9.10222 33.2856 -6.106
90 1 9.69516 33.012 -6.79546
91 1 10.3562 32.6482 -7.36458
92 1 11.0342 32.2794 -7.93319
93 1 11.668 31.8588 -8.43837
94 1 12.2831 31.4116 -9.11437
95 1 12.746 30.9145 -9.80955
96 1 13.166 30.5283 -10.6235
97 1 13.5089 30.1351 -11.4534
98 1 13.7723 29.6307 -12.1928
99 1 14.0421 29.0354 -12.853
100 1 14.3019 28.3914 -13.4853
101 1 14.5759 27.8153 -14.1213
102 1 14.8769 27.1242 -14.7158
103 1 15.1589 26.4098 -15.288
104 1 15.4685 25.7074 -15.8082
105 1 15.9297 25.0997 -16.3066
106 1 16.466 24.4183 -16.5937
107 1 17.0095 23.7075 -17.0226
108 1 17.6202 23.1622 -17.4131
109 1 18.2171 22.5196 -17.7472
110 1 18.7671 21.8377 -18.0344
111 1 19.378 21.1585 -18.3334
112 1 19.9496 20.4687 -18.6848
113 1 20.5617 19.8642 -19.1201
114 1 21.1598 19.2643 -19.5283
115 1 21.8753 18.7491 -19.9109
116 1 22.573 18.1452 -20.2538
117 1 23.2913 17.5031 -20.4603
118 1 23.8453 16.8454 -20.7893
119 1 24.3833 16.0819 -21.0341
120 1 24.9249 15.2932 -21.227
121 1 25.3866 14.5381 -21.49
122 1 25.729 13.6931 -21.8486
123 1 26.0997 12.8451 -22.0772
124 1 26.5919 12.0832 -22.2801
125 1 27.0282 11.2889 -22.5237
126 1 27.5272 10.5893 -22.9099
127 1 28.1381 9.89845 -23.2313
128 1 28.7658 9.23181 -23.4783
ITEM: TIMESTEP
3150000
ITEM: NUMBER OF ATOMS
128
ITEM: BOX BOUNDS mm mm mm
-6.4000000000000000e+01 6.4000000000000000e+01
-6.4000000000000000e+01 6.4000000000000000e+01
-6.4000000000000000e+01 6.4000000000000000e+01
ITEM: ATOMS id type x y z
1 1 -56.4568 13.5015 24.6719
2 1 -55.5287 13.5297 24.4762
3 1 -54.5681 13.6368 24.2053
4 1 -53.6898 13.7147 23.9397
5 1 -52.7969 13.7028 23.6604
6 1 -51.8497 13.7202 23.5071
7 1 -50.9141 13.8679 23.4449
8 1 -49.9964 14.0014 23.3965
9 1 -49.1025 14.1933 23.5021
10 1 -48.1888 14.3982 23.567
11 1 -47.2685 14.5644 23.6656
12 1 -46.3462 14.8596 23.6974
13 1 -45.5032 15.3595 23.638
14 1 -44.7109 15.868 23.7186
15 1 -43.9574 16.3639 23.7547
16 1 -43.1951 16.9543 23.8472
17 1 -42.4164 17.5276 23.8638
18 1 -41.6985 18.1502 23.855
19 1 -41.0068 18.7829 23.8499
20 1 -40.2478 19.3965 23.8963
21 1 -39.4701 19.9312 23.9105
22 1 -38.6971 20.4068 23.9103
23 1 -37.819 20.8319 23.9934
24 1 -36.9703 21.2211 24.0221
25 1 -36.0041 21.596 24.0605
26 1 -35.1773 21.9372 24.0895
27 1 -34.3646 22.3763 23.9811
28 1 -33.5319 22.8333 23.9709
29 1 -32.7017 23.2672 23.8644
30 1 -31.9176 23.6617 23.8904
31 1 -31.0868 24.0306 23.7795
32 1 -30.2106 24.3489 23.4799
33 1 -29.3591 24.5658 23.0502
34 1 -28.6019 24.8539 22.577
35 1 -27.8271 25.1868 22.1382
36 1 -27.0312 25.6802 21.7114
37 1 -26.3403 26.1634 21.3442
38 1 -25.6655 26.7541 20.8645
39 1 -25.0423 27.2299 20.3278
40 1 -24.4387 27.6916 19.7311
41 1 -23.7736 28.0766 19.2383
42 1 -22.9853 28.3162 18.7127
43 1 -22.2281 28.5263 18.1595
44 1 -21.5208 28.6979 17.5603
45 1 -20.8372 28.9947 16.9986
46 1 -20.1877 29.2867 16.3568
47 1 -19.5741 29.5351 15.6503
48 1 -19.0245 29.6292 14.8705
49 1 -18.5633 29.7092 14.0284
50 1 -17.9772 29.7502 13.2826
51 1 -17.2656 29.9024 12.6603
52 1 -16.5591 30.0827 12.0319
53 1 -15.8452 30.1991 11.3972
54 1 -15.2248 30.3855 10.7174
55 1 -14.8217 30.5836 9.90614
56 1 -14.5528 30.8092 9.02026
57 1 -14.1728 31.0618 8.17877
58 1 -13.825 31.4996 7.45475
59 1 -13.3693 32.0737 6.82817
60 1 -12.8573 32.5969 6.19184
61 1 -12.3359 33.1134 5.579
62 1 -11.8581 33.4638 4.85475
63 1 -11.3251 33.7568 4.07114
64 1 -10.8281 33.9615 3.30537
65 1 -10.272 34.2807 2.54765
66 1 -9.76278 34.5399 1.80968
67 1 -9.23896 34.8265 1.11192
68 1 -8.60911 35.072 0.494655
69 1 -7.98069 35.242 -0.142444
70 1 -7.19594 35.3659 -0.620651
71 1 -6.43291 35.5351 -1.12454
72 1 -5.59494 35.7949 -1.4994
73 1 -4.73169 36.0137 -1.78305
74 1 -3.84898 36.2045 -2.11024
75 1 -2.96891 36.2698 -2.41937
76 1 -2.15101 36.4254 -2.89928
77 1 -1.26539 36.545 -3.34473
78 1 -0.403858 36.5486 -3.69871
79 1 0.503114 36.5461 -4.04868
80 1 1.33921 36.4477 -4.52615
81 1 2.15854 36.3298 -4.96491
82 1 3.03401 36.246 -5.39211
83 1 3.871 36.2478 -5.75273
84 1 4.74527 36.1308 -6.04368
85 1 5.65475 35.9862 -6.34806
86 1 6.53225 35.9119 -6.64475
87 1 7.4263 35.8388 -7.02036
88 1 8.21274 35.674 -7.41812
89 1 8.99112 35.3649 -7.83851
90 1 9.74429 34.9668 -8.24858
91 1 10.4872 34.512 -8.66913
92 1 11.0799 34.0329 -9.1785
93 1 11.769 33.5499 -9.67004
94 1 12.4287 33.1124 -10.1737
95 1 13.0693 32.6493 -10.7036
96 1 13.6108 32.0728 -11.3209
97 1 14.1554 31.5781 -11.8757
98 1 14.6646 31.0317 -12.4051
99 1 15.2977 30.3887 -12.9371
100 1 15.8236 29.7846 -13.4996
101 1 16.3185 29.2973 -14.1117
102 1 16.7861 28.7875 -14.7402
103 1 17.2338 28.2882 -15.4013
104 1 17.6381 27.6864 -15.9626
105 1 18.0353 27.0701 -16.5958
106 1 18.3914 26.41 -17.1705
107 1 18.7154 25.7702 -17.8807
108 1 18.9806 25.1832 -18.5661
109 1 19.1896 24.4736 -19.0685
110 1 19.4622 23.7584 -19.6101
111 1 19.7349 23.0912 -20.221
112 1 19.9968 22.4157 -20.8088
113 1 20.1966 21.6833 -21.4237
114 1 20.3221 20.889 -21.9422
115 1 20.5087 20.1067 -22.4193
116 1 20.7417 19.3358 -22.9364
117 1 20.9357 18.6522 -23.5037
118 1 21.027 18.0418 -24.2146
119 1 21.1876 17.3323 -24.8674
120 1 21.3991 16.6421 -25.5087
121 1 21.5307 16.0149 -26.1883
122 1 21.6015 15.3935 -26.9304
123 1 21.6636 14.7523 -27.6378
124 1 21.7657 14.1105 -28.3164
125 1 21.8851 13.4575 -28.9046
126 1 21.9503 12.8219 -29.5794
127 1 22.1882 12.1291 -30.1716
128 1 22.4493 11.4316 -30.7442
ITEM: TIMESTEP
3160000
ITEM: NUMBER OF ATOMS
128
ITEM: BOX BOUNDS mm mm mm
-6.4000000000000000e+01 6.4000000000000000e+01
-6.4000000000000000e+01 6.4000000000000000e+01
-6.4000000000000000e+01 6.4000000000000000e+01
ITEM: ATOMS id type x y z
1 1 -54.6076 14.618 30.232
2 1 -53.7628 14.8629 29.8094
3 1 -52.869 15.1003 29.4514
4 1 -52.1524 15.4671 28.9523
5 1 -51.3224 15.6989 28.4139
6 1 -50.5204 15.9678 28.006
7 1 -49.7091 16.2061 27.7027
8 1 -48.8771 16.4712 27.4138
9 1 -48.0499 16.7693 27.025
10 1 -47.2459 16.9231 26.5996
11 1 -46.4925 17.2403 26.1011
12 1 -45.745 17.589 25.6312
13 1 -45.0487 17.89 25.0408
14 1 -44.4355 18.1833 24.4191
15 1 -43.7149 18.5731 23.9485
16 1 -42.9466 18.9816 23.5978
17 1 -42.2277 19.3964 23.218
18 1 -41.4976 19.7743 22.7565
19 1 -40.792 20.1047 22.2887
20 1 -40.0897 20.5267 21.8602
21 1 -39.361 20.9952 21.4466
22 1 -38.5234 21.3177 21.1354
23 1 -37.7557 21.5921 20.6702
24 1 -37.0396 21.9581 20.142
25 1 -36.3497 22.3776 19.6338
26 1 -35.6294 22.7388 19.133
27 1 -34.9073 23.1386 18.7856
28 1 -34.1317 23.5734 18.4241
29 1 -33.3892 23.9171 18.0337
30 1 -32.5476 24.218 17.7497
31 1 -31.665 24.5792 17.415
32 1 -30.8691 24.908 17.0733
33 1 -30.1038 25.3102 16.6557
34 1 -29.286 25.7941 16.2686
35 1 -28.5393 26.206 15.8738
36 1 -27.7127 26.6555 15.4281
37 1 -27.1307 27.2291 14.9614
38 1 -26.4816 27.7521 14.5866
39 1 -25.8994 28.3823 14.2842
40 1 -25.2723 28.9759 13.9276
41 1 -24.5746 29.5555 13.6853
42 1 -23.7881 30.0126 13.3434
43 1 -22.9775 30.48 13.0345
44 1 -22.2072 30.9827 12.7992
45 1 -21.3052 31.3405 12.6838
46 1 -20.4038 31.6228 12.5616
47 1 -19.5421 31.8906 12.5245
48 1 -18.6938 32.2643 12.3688
49 1 -17.9064 32.6855 12.2027
50 1 -17.1042 33.1459 12.0546
51 1 -16.2731 33.5816 11.8546
52 1 -15.4762 34.0225 11.6926
53 1 -14.6789 34.4978 11.5288
54 1 -13.8219 34.9244 11.4572
55 1 -13.0339 35.3722 11.3022
56 1 -12.2813 35.8894 11.0277
57 1 -11.5566 36.3214 10.7116
58 1 -10.8182 36.7379 10.2582
59 1 -10.087 37.2388 9.74224
60 1 -9.42051 37.7688 9.23846
61 1 -8.76055 38.1838 8.68521
62 1 -8.20748 38.6136 8.1238
63 1 -7.58021 38.9451 7.54112
64 1 -6.88782 39.2477 6.95282
65 1 -6.23899 39.4712 6.33446
66 1 -5.54386 39.6676 5.68095
67 1 -4.91818 39.7543 4.95759
68 1 -4.35674 39.8696 4.18066
69 1 -3.77889 39.8632 3.47528
70 1 -3.19478 39.7993 2.68552
71 1 -2.55444 39.8079 1.97951
72 1 -1.90467 39.7801 1.32569
73 1 -1.18585 39.7955 0.668551
74 1 -0.486886 39.7671 0.0174142
75 1 0.205043 39.7936 -0.626545
76 1 0.848378 39.8093 -1.34447
77 1 1.57946 39.738 -2.01396
78 1 2.19341 39.8096 -2.66657
79 1 2.98205 39.8946 -3.16184
80 1 3.78538 39.8838 -3.69765
81 1 4.54472 39.8323 -4.15853
82 1 5.33269 39.7801 -4.72663
83 1 6.06712 39.7692 -5.25955
84 1 6.86526 39.7179 -5.74467
85 1 7.59828 39.7152 -6.32402
86 1 8.42273 39.5829 -6.84096
87 1 9.17449 39.4399 -7.30654
88 1 10.0313 39.321 -7.82438
89 1 10.8406 39.1445 -8.26392
90 1 11.6514 39.0427 -8.74933
91 1 12.4887 38.9868 -9.11667
92 1 13.279 38.8107 -9.55301
93 1 14.0471 38.5397 -10.0454
94 1 14.7189 38.2885 -10.6361
95 1 15.2801 37.9037 -11.2948
96 1 15.7124 37.5348 -12.0393
97 1 15.9621 37.0705 -12.8468
98 1 16.2747 36.5976 -13.5834
99 1 16.7038 35.9706 -14.1999
100 1 16.9971 35.2379 -14.656
101 1 17.3287 34.495 -15.1126
102 1 17.7584 33.7307 -15.5101
103 1 18.2818 33.0014 -15.8345
104 1 18.7898 32.2958 -16.1716
105 1 19.1989 31.4649 -16.3374
106 1 19.5821 30.5997 -16.4085
107 1 19.8207 29.6934 -16.5072
108 1 19.9552 28.7832 -16.693
109 1 20.0592 27.9181 -16.8922
110 1 20.1981 27.0131 -17.2684
111 1 20.2974 26.1168 -17.6644
112 1 20.4306 25.1973 -17.9733
113 1 20.5936 24.2461 -18.2123
114 1 20.7217 23.3562 -18.4942
115 1 20.8245 22.4625 -18.8134
116 1 20.9856 21.5968 -19.1046
117 1 21.156 20.732 -19.4571
118 1 21.2143 19.8871 -19.886
119 1 21.467 19.1091 -20.3309
120 1 21.6308 18.3183 -20.8533
121 1 21.765 17.4958 -21.3585
122 1 21.875 16.755 -21.8411
123 1 21.9888 16.0121 -22.3679
124 1 22.1594 15.266 -22.8865
125 1 22.2692 14.5017 -23.3956
126 1 22.5159 13.7028 -23.9082
127 1 22.7534 12.8189 -24.2683
128 1 22.9575 11.9753 -24.678
ITEM: TIMESTEP
3170000
ITEM: NUMBER OF ATOMS
128
ITEM: BOX BOUNDS mm mm mm
-6.4000000000000000e+01 6.4000000000000000e+01
-6.4000000000000000e+01 6.4000000000000000e+01
-6.4000000000000000e+01 6.4000000000000000e+01
ITEM: ATOMS id type x y z
1 1 -53.6424 20.4214 34.9387
2 1 -52.6744 20.382 34.7721
3 1 -51.7788 20.2626 34.5303
4 1 -50.9494 20.0008 34.0829
5 1 -50.2118 19.8243 33.5719
6 1 -49.5132 19.6831 32.9891
7 1 -48.7847 19.4499 32.4723
8 1 -48.0321 19.1679 32.0364
9 1 -47.2459 18.8737 31.5479
10 1 -46.4075 18.7349 31.0982
11 1 -45.6218 18.5843 30.5554
12 1 -44.8549 18.3659 30.0991
13 1 -44.0448 18.1802 29.5657
14 1 -43.2366 18.1572 29.0405
15 1 -42.4801 18.1869 28.5805
16 1 -41.6533 18.3436 28.0545
17 1 -40.8387 18.5819 27.584
18 1 -40.1032 18.7749 27.0207
19 1 -39.437 18.9507 26.4335
20 1 -38.6632 19.0355 25.895
21 1 -37.8961 19.2258 25.3449
22 1 -37.1671 19.548 24.8244
23 1 -36.5143 19.889 24.2642
24 1 -35.8316 20.1644 23.7009
25 1 -35.1368 20.4264 23.1395
26 1 -34.3716 20.7975 22.6833
27 1 -33.5749 21.1047 22.2129
28 1 -32.7842 21.4796 21.8823
29 1 -31.9676 21.6605 21.4581
30 1 -31.1654 21.8677 21.0151
31 1 -30.4694 22.2385 20.4672
32 1 -29.8512 22.7615 20.0199
33 1 -29.2592 23.189 19.4493
34 1 -28.6379 23.62 18.8919
35 1 -28.0848 24.1583 18.3058
36 1 -27.5727 24.7228 17.6511
37 1 -27.129 25.3868 17.1394
38 1 -26.6331 26.0344 16.6253
39 1 -26.099 26.6997 16.2369
40 1 -25.5546 27.3877 15.8671
41 1 -24.9852 28.0718 15.511
42 1 -24.4616 28.8047 15.15
43 1 -24.0112 29.4672 14.7017
44 1 -23.461 30.1061 14.2168
45 1 -22.9588 30.7671 13.7995
46 1 -22.3515 31.4202 13.4593
47 1 -21.7863 32.0995 13.0818
48 1 -21.1582 32.7354 12.6721
49 1 -20.518 33.3276 12.3013
50 1 -19.8724 33.9217 11.9656
51 1 -19.1569 34.5163 11.6753
52 1 -18.4223 34.9941 11.3125
53 1 -17.748 35.5773 10.9167
54 1 -17.0236 36.0966 10.5593
55 1 -16.3929 36.6158 10.1047
56 1 -15.7644 37.1428 9.68858
57 1 -15.1191 37.7513 9.27612
58 1 -14.502 38.3472 8.88942
59 1 -13.9718 38.9747 8.39297
60 1 -13.4694 39.5039 7.85206
61 1 -12.8642 39.9289 7.29846
62 1 -12.1624 40.3239 6.74538
63 1 -11.5309 40.7505 6.2011
64 1 -10.7996 41.0357 5.66225
65 1 -10.0757 41.333 5.17377
66 1 -9.3022 41.6352 4.71327
67 1 -8.58183 41.8646 4.06482
68 1 -7.87808 41.9815 3.44113
69 1 -7.10387 42.1294 2.90442
70 1 -6.2738 42.2633 2.58082
71 1 -5.37955 42.3733 2.30276
72 1 -4.46681 42.4783 2.03209
73 1 -3.58585 42.6201 1.81718
74 1 -2.6676 42.7097 1.73718
75 1 -1.71251 42.6997 1.61419
76 1 -0.836804 42.6368 1.46495
77 1 0.136375 42.6043 1.3308
78 1 1.04646 42.6245 1.07745
79 1 1.96236 42.4802 0.807776
80 1 2.82489 42.3261 0.551394
81 1 3.70901 42.0917 0.215251
82 1 4.54568 41.834 -0.12722
83 1 5.4268 41.4802 -0.431063
84 1 6.24923 41.1403 -0.69838
85 1 7.1141 40.7203 -0.979535
86 1 7.81808 40.2192 -1.27342
87 1 8.4695 39.7147 -1.75613
88 1 9.12136 39.2246 -2.17482
89 1 9.81825 38.7353 -2.7142
90 1 10.4295 38.1865 -3.20491
91 1 10.9678 37.7701 -3.76085
92 1 11.4959 37.373 -4.46755
93 1 12.1426 37.0994 -5.2067
94 1 12.7165 36.7197 -5.85483
95 1 13.2535 36.2377 -6.52014
96 1 13.8585 35.8222 -7.12943
97 1 14.3087 35.3709 -7.83038
98 1 14.7708 34.8767 -8.46769
99 1 15.3169 34.2828 -9.07953
100 1 15.8926 33.7005 -9.6674
101 1 16.4407 33.196 -10.2708
102 1 16.9561 32.7448 -10.9296
103 1 17.3904 32.1887 -11.5687
104 1 17.734 31.5548 -12.1614
105 1 18.0637 30.863 -12.7291
106 1 18.2716 30.1478 -13.377
107 1 18.4235 29.4931 -14.0506
108 1 18.6441 28.8954 -14.763
109 1 18.8313 28.4062 -15.5293
110 1 18.9526 27.8963 -16.3221
111 1 18.9422 27.3055 -17.0598
112 1 18.9357 26.698 -17.7981
113 1 18.8132 26.0872 -18.5072
114 1 18.7088 25.3981 -19.2518
115 1 18.6067 24.7616 -19.9251
116 1 18.3662 24.1431 -20.5864
117 1 18.1189 23.5057 -21.2084
118 1 17.9261 22.817 -21.7923
119 1 17.7578 22.1928 -22.4694
120 1 17.5719 21.5204 -23.1539
121 1 17.4431 20.9119 -23.8042
122 1 17.3503 20.3168 -24.4844
123 1 17.2756 19.7225 -25.153
124 1 17.2049 19.1226 -25.8783
125 1 17.2122 18.633 -26.7035
126 1 17.2824 18.2031 -27.5429
127 1 17.3213 17.9114 -28.4092
128 1 17.3649 17.5964 -29.2892
ITEM: TIMESTEP
3180000
ITEM: NUMBER OF ATOMS
128
ITEM: BOX BOUNDS mm mm mm
-6.4000000000000000e+01 6.4000000000000000e+01
-6.4000000000000000e+01 6.4000000000000000e+01
-6.4000000000000000e+01 6.4000000000000000e+01
ITEM: ATOMS id type x y z
1 1 -53.3772 19.4084 37.978
2 1 -52.5456 19.5911 37.6228
3 1 -51.7182 19.7887 37.1821
4 1 -50.9604 19.9833 36.678
5 1 -50.1589 20.2656 36.2714
6 1 -49.437 20.4427 35.7125
7 1 -48.7156 20.5362 34.9584
8 1 -48.1449 20.5568 34.2502
9 1 -47.4977 20.649 33.5355
10 1 -46.84 20.6708 32.8394
11 1 -46.2256 20.6858 32.092
12 1 -45.5845 20.7886 31.3855
13 1 -45.021 20.7324 30.6026
14 1 -44.4359 20.7587 29.8347
15 1 -43.8078 20.8409 29.1478
16 1 -43.1949 20.7962 28.4627
17 1 -42.5521 20.7428 27.7421
18 1 -41.8517 20.7282 27.1503
19 1 -41.082 20.7464 26.568
20 1 -40.4314 20.7851 25.9523
21 1 -39.6734 20.7639 25.3583
22 1 -38.9555 20.6827 24.7318
23 1 -38.1954 20.701 24.0716
24 1 -37.5067 20.7503 23.4833
25 1 -36.7543 20.7717 22.9251
26 1 -35.972 20.8576 22.3539
27 1 -35.1625 20.9788 21.8358
28 1 -34.3267 21.1352 21.4109
29 1 -33.5644 21.4712 20.9911
30 1 -32.7415 21.851 20.6923
31 1 -31.9703 22.2491 20.3665
32 1 -31.1994 22.7944 20.1905
33 1 -30.4534 23.4029 20.162
34 1 -29.6633 23.9323 20.095
35 1 -28.8331 24.3912 20.0956
36 1 -27.9853 24.7885 20.1642
37 1 -27.1083 25.1565 20.0805
38 1 -26.2375 25.4965 19.944
39 1 -25.4153 25.8693 19.7186
40 1 -24.6545 26.3443 19.5442
41 1 -23.8946 26.9054 19.3532
42 1 -23.2022 27.4887 19.1446
43 1 -22.5765 28.1676 18.9514
44 1 -21.9507 28.8804 18.7019
45 1 -21.3421 29.5598 18.3993
46 1 -20.6583 30.1988 18.2146
47 1 -19.9892 30.8028 17.9133
48 1 -19.2947 31.3712 17.6101
49 1 -18.5713 31.9321 17.4042
50 1 -17.7683 32.4041 17.1554
51 1 -17.0141 32.8176 16.866
52 1 -16.1962 33.1808 16.5806
53 1 -15.4275 33.5513 16.1767
54 1 -14.6321 33.9327 15.8146
55 1 -13.9484 34.4954 15.4883
56 1 -13.1642 35.0152 15.1476
57 1 -12.4621 35.4819 14.7285
58 1 -11.8094 35.917 14.2661
59 1 -11.1356 36.259 13.7432
60 1 -10.4696 36.6634 13.1693
61 1 -10.02 37.11 12.4867
62 1 -9.49618 37.5881 11.8157
63 1 -8.91952 37.9869 11.205
64 1 -8.32974 38.3594 10.5472
65 1 -7.68106 38.7241 9.98629
66 1 -7.11936 39.0461 9.40819
67 1 -6.5088 39.4533 8.7893
68 1 -5.80829 39.7616 8.20326
69 1 -5.02378 39.9337 7.65805
70 1 -4.32345 40.1964 7.08855
71 1 -3.64188 40.3933 6.42162
72 1 -2.97857 40.6515 5.81997
73 1 -2.22404 40.8202 5.31879
74 1 -1.43379 41.0258 4.813
75 1 -0.633109 41.216 4.30591
76 1 0.110389 41.3589 3.74878
77 1 0.857023 41.4264 3.18707
78 1 1.6022 41.384 2.63091
79 1 2.32679 41.294 2.01936
80 1 3.04461 41.2457 1.36052
81 1 3.72948 41.1502 0.681796
82 1 4.26571 40.9377 -0.0294837
83 1 4.84104 40.6516 -0.731094
84 1 5.37915 40.3055 -1.40765
85 1 5.86095 39.9666 -2.13094
86 1 6.24006 39.408 -2.76666
87 1 6.68248 38.8919 -3.41867
88 1 7.18086 38.373 -3.99415
89 1 7.74454 37.7825 -4.49116
90 1 8.23629 37.2372 -5.09567
91 1 8.70536 36.7574 -5.70815
92 1 9.18419 36.1379 -6.24342
93 1 9.6104 35.4456 -6.76054
94 1 10.0499 34.7875 -7.29034
95 1 10.414 34.145 -7.82286
96 1 10.7274 33.5906 -8.49836
97 1 11.1134 33.0572 -9.15718
98 1 11.5446 32.5396 -9.79997
99 1 11.9854 32.0324 -10.4655
100 1 12.4591 31.4329 -10.9942
101 1 12.9943 30.8576 -11.5283
102 1 13.6004 30.382 -12.0496
103 1 14.1645 29.8056 -12.6299
104 1 14.7744 29.307 -13.1723
105 1 15.4005 28.9301 -13.8125
106 1 15.9231 28.4653 -14.424
107 1 16.4252 28.0103 -15.0497
108 1 17.0136 27.5881 -15.7311
109 1 17.4902 27.2064 -16.3941
110 1 18.0249 26.7946 -17.0713
111 1 18.5105 26.3456 -17.7279
112 1 18.8928 25.9492 -18.5021
113 1 19.1987 25.607 -19.3098
114 1 19.4742 25.3343 -20.1152
115 1 19.7882 25.0663 -21.0456
116 1 20.002 24.6991 -21.8471
117 1 20.1899 24.3114 -22.7305
118 1 20.4043 23.8948 -23.5985
119 1 20.5658 23.6144 -24.5484
120 1 20.7873 23.3033 -25.4115
121 1 20.9534 23.0411 -26.2952
122 1 21.1304 22.8032 -27.1957
123 1 21.3002 22.5247 -28.1108
124 1 21.3441 22.337 -29.0831
125 1 21.4174 22.2294 -30.0494
126 1 21.6136 22.138 -30.9737
127 1 21.8383 22.0765 -31.9176
128 1 22.1023 22.0253 -32.821
ITEM: TIMESTEP
3190000
ITEM: NUMBER OF ATOMS
128
ITEM: BOX BOUNDS mm mm mm
-6.4000000000000000e+01 6.4000000000000000e+01
-6.4000000000000000e+01 6.4000000000000000e+01
-6.4000000000000000e+01 6.4000000000000000e+01
ITEM: ATOMS id type x y z
1 1 -51.2542 21.3216 40.2784
2 1 -50.5308 21.0298 39.7287
3 1 -49.857 20.7487 39.0672
4 1 -49.1518 20.4973 38.5609
5 1 -48.4675 20.2783 37.935
6 1 -47.8426 20.0312 37.3319
7 1 -47.1531 19.851 36.6987
8 1 -46.4194 19.6915 36.0763
9 1 -45.852 19.4636 35.4205
10 1 -45.2778 19.2381 34.7456
11 1 -44.7849 18.9163 33.9999
12 1 -44.231 18.6974 33.2655
13 1 -43.7482 18.4811 32.4676
14 1 -43.2708 18.2056 31.6971
15 1 -42.807 17.9608 30.8732
16 1 -42.2253 17.7757 30.2262
17 1 -41.6111 17.6267 29.4666
18 1 -41.035 17.5072 28.7855
19 1 -40.43 17.4859 28.0455
20 1 -39.8875 17.5315 27.266
21 1 -39.319 17.5873 26.5416
22 1 -38.7233 17.6539 25.8192
23 1 -38.15 17.8187 25.1171
24 1 -37.5026 18.1399 24.4546
25 1 -36.984 18.5079 23.7369
26 1 -36.5447 18.8951 23.0406
27 1 -36.0356 19.3912 22.4053
28 1 -35.5203 20.0149 21.8275
29 1 -35.0132 20.5583 21.3066
30 1 -34.4328 21.1176 20.8404
31 1 -33.9815 21.7996 20.3998
32 1 -33.5042 22.4726 19.9121
33 1 -32.9195 23.0665 19.5347
34 1 -32.1841 23.5896 19.1539
35 1 -31.4724 24.0938 18.7779
36 1 -30.7635 24.64 18.4993
37 1 -29.9198 25.1198 18.3386
38 1 -29.127 25.6167 18.2598
39 1 -28.3533 26.1507 18.2575
40 1 -27.5756 26.7071 18.2238
41 1 -26.8157 27.139 18.4009
42 1 -25.9806 27.5615 18.5864
43 1 -25.1004 27.9744 18.5853