ITEM: TIMESTEP
1820000
ITEM: NUMBER OF ATOMS
128
ITEM: BOX BOUNDS mm mm mm
-6.4000000000000000e+01 6.4000000000000000e+01
-6.4000000000000000e+01 6.4000000000000000e+01
-6.4000000000000000e+01 6.4000000000000000e+01
ITEM: ATOMS id type x y z
1 1 -31.3471 33.1185 5.87069
2 1 -30.6849 32.5171 5.60815
3 1 -29.8773 31.9889 5.76771
4 1 -29.0354 31.505 5.99978
5 1 -28.3638 32.0946 5.68105
6 1 -28.0814 33.0199 5.73378
7 1 -27.8554 33.9447 5.67755
8 1 -27.5572 34.5018 4.95718
9 1 -26.7758 34.8705 4.50475
10 1 -25.9142 34.5143 4.52864
11 1 -25.0531 34.7868 4.35184
12 1 -24.3639 35.333 3.91318
13 1 -23.4461 35.1863 4.03055
14 1 -22.8359 34.5661 4.52781
15 1 -23.2658 33.7826 4.13826
16 1 -23.7341 33.078 3.70257
17 1 -24.364 32.6513 3.15885
18 1 -25.0445 32.0241 2.87799
19 1 -25.3274 31.6626 1.97999
20 1 -25.5218 31.8142 1.13581
21 1 -24.7809 31.5361 0.646745
22 1 -24.1441 30.8348 0.647908
23 1 -24.2158 30.351 1.45252
24 1 -24.2453 29.5292 1.84973
25 1 -23.7614 28.8426 1.45812
26 1 -23.5137 27.9165 1.57627
27 1 -23.5409 27.5192 0.711771
28 1 -23.3711 26.6339 0.949111
29 1 -23.9615 25.8715 1.02727
30 1 -23.9041 24.9241 1.30477
31 1 -24.2497 24.0658 1.39279
32 1 -24.4421 23.2242 1.69158
33 1 -24.6648 22.4035 2.09262
34 1 -24.6908 21.8081 2.77318
35 1 -24.4674 22.0643 3.684
36 1 -23.5541 22.3215 3.51086
37 1 -22.8767 22.7035 2.876
38 1 -22.6891 23.3939 2.28801
39 1 -22.3199 23.9374 1.66071
40 1 -21.4685 24.079 1.30795
41 1 -20.9968 24.2722 2.09857
42 1 -20.6361 24.1223 2.922
43 1 -19.8397 24.276 3.39794
44 1 -19.0296 24.748 3.40597
45 1 -18.6226 25.3897 3.92441
46 1 -18.8141 25.9369 4.60858
47 1 -19.2695 26.0661 5.46568
48 1 -19.1054 25.9025 6.40005
49 1 -18.9618 25.1997 7.07753
50 1 -18.6992 24.288 7.26034
51 1 -17.8263 23.932 7.22194
52 1 -17.4011 23.4457 6.54484
53 1 -17.4629 22.5652 6.21424
54 1 -17.8237 21.7328 6.36794
55 1 -18.6917 21.3823 6.10299
56 1 -19.5141 21.3507 5.66179
57 1 -19.8098 20.8671 4.86014
58 1 -19.7799 20.0939 4.37135
59 1 -19.9374 19.4538 3.66301
60 1 -20.2188 18.8253 3.00926
61 1 -20.6604 18.3502 2.32497
62 1 -20.4996 17.4406 2.12983
63 1 -20.1961 16.5667 2.00615
64 1 -19.7393 15.7202 2.12355
65 1 -19.2498 15.1387 1.66439
66 1 -18.6045 15.1572 1.00026
67 1 -17.7553 15.323 0.571449
68 1 -17.2952 15.6258 -0.198942
69 1 -16.5106 16.1242 -0.472013
70 1 -15.8056 16.4835 -0.959842
71 1 -15.2881 16.2758 -1.76997
72 1 -15.175 15.4578 -2.37527
73 1 -15.6097 15.0672 -1.58462
74 1 -15.8599 15.0211 -0.664344
75 1 -15.313 15.2099 0.0361434
76 1 -15.0307 14.9836 0.949057
77 1 -14.4417 14.665 1.59071
78 1 -14.5732 13.7553 1.83547
79 1 -14.9372 13.0355 1.21776
80 1 -15.2111 12.2932 0.8424
81 1 -15.7094 11.4918 0.927658
82 1 -16.1504 10.7013 1.24788
83 1 -16.3942 9.80855 1.25507
84 1 -17.0596 9.18325 1.40488
85 1 -16.5326 8.49978 1.83678
86 1 -16.0304 7.77278 2.24129
87 1 -15.7323 7.05992 2.856
88 1 -15.6129 6.17596 3.13762
89 1 -15.5659 5.83392 4.01443
90 1 -15.6222 4.96532 4.47442
91 1 -16.2521 4.31624 4.57093
92 1 -16.2391 3.35372 4.34124
93 1 -16.7925 2.59181 4.62275
94 1 -16.1798 2.09135 5.20379
95 1 -15.48 1.71921 5.6256
96 1 -15.204 0.863555 5.95452
97 1 -15.6382 0.591435 6.73405
98 1 -15.7694 0.293905 7.60758
99 1 -15.3564 0.446489 8.45257
100 1 -15.4124 0.784566 9.3526
101 1 -15.6427 1.69683 9.1838
102 1 -16.1099 2.50071 8.9516
103 1 -16.7221 3.17147 9.25191
104 1 -17.5928 3.30956 8.93879
105 1 -18.3894 3.61015 8.46642
106 1 -19.2446 3.36781 8.51997
107 1 -19.435 3.75615 9.31741
108 1 -20.1124 3.82634 9.9177
109 1 -19.8782 4.19901 10.7304
110 1 -19.4298 4.82378 11.309
111 1 -19.3869 4.61058 12.2081
112 1 -19.9489 4.19183 12.8224
113 1 -19.9912 3.65433 13.5422
114 1 -20.645 3.18224 14.0272
115 1 -20.9136 3.19943 14.9199
116 1 -20.5673 3.17203 15.7842
117 1 -20.4698 2.29983 16.0709
118 1 -19.9179 1.6437 15.6501
119 1 -19.3954 0.958919 15.2343
120 1 -18.8441 0.585684 14.6085
121 1 -18.7268 -0.37926 14.4315
122 1 -18.5717 -1.04368 15.0805
123 1 -18.9076 -1.62552 15.7525
124 1 -19.7395 -2.09036 16.009
125 1 -20.6564 -2.22402 16.3762
126 1 -21.5567 -2.11224 15.9263
127 1 -22.2409 -2.50066 15.4617
128 1 -23.0804 -2.77825 15.0964
ITEM: TIMESTEP
1830000
ITEM: NUMBER OF ATOMS
128
ITEM: BOX BOUNDS mm mm mm
-6.4000000000000000e+01 6.4000000000000000e+01
-6.4000000000000000e+01 6.4000000000000000e+01
-6.4000000000000000e+01 6.4000000000000000e+01
ITEM: ATOMS id type x y z
1 1 -26.7324 39.4995 7.31471
2 1 -26.1668 38.7479 7.54096
3 1 -25.9335 37.8601 7.21841
4 1 -25.3233 37.2746 6.87113
5 1 -24.7717 36.535 6.71757
6 1 -25.3007 35.9101 6.15671
7 1 -26.1065 35.478 6.39478
8 1 -26.2909 34.6639 6.09366
9 1 -26.1496 33.7389 5.81968
10 1 -26.4154 33.2502 5.08223
11 1 -26.6367 32.5614 4.44409
12 1 -26.8482 32.6364 3.55321
13 1 -26.6155 32.138 2.75529
14 1 -25.9938 32.1922 2.09198
15 1 -25.3059 32.0766 1.33193
16 1 -25.0592 31.4581 0.729129
17 1 -24.6451 30.6488 0.439391
18 1 -24.7401 30.0582 -0.292886
19 1 -25.1125 29.3355 -0.728737
20 1 -24.5409 28.5577 -0.673132
21 1 -24.1254 27.9957 0.0097404
22 1 -23.9617 27.4013 0.717132
23 1 -24.0834 26.4747 0.755843
24 1 -24.2415 25.5156 0.951514
25 1 -23.5469 24.892 0.853996
26 1 -22.6417 24.5717 1.20782
27 1 -21.8671 23.9569 1.20948
28 1 -21.1391 23.3246 1.31864
29 1 -20.3307 23.0449 1.01351
30 1 -19.4141 23.1905 0.733356
31 1 -18.8703 22.8367 1.39928
32 1 -18.9143 22.4974 2.28074
33 1 -19.4619 22.0952 2.92235
34 1 -20.3172 21.8884 3.18882
35 1 -20.893 21.6475 3.87266
36 1 -21.3259 21.1089 4.47977
37 1 -21.7298 21.229 5.36563
38 1 -21.5691 21.065 6.26405
39 1 -21.1687 21.6502 6.87993
40 1 -20.266 21.8618 6.74147
41 1 -19.5281 21.9552 7.34436
42 1 -19.0288 22.3119 8.0655
43 1 -18.235 22.7496 7.88528
44 1 -17.6818 22.8796 7.12102
45 1 -17.5701 22.717 6.0922
46 1 -17.6495 22.4739 5.15373
47 1 -17.2612 22.3192 4.28712
48 1 -16.9254 22.1395 3.42381
49 1 -16.1905 21.5955 3.16224
50 1 -15.3051 21.8637 3.20348
51 1 -14.6223 22.0328 3.78232
52 1 -14.148 22.3575 4.53227
53 1 -13.3026 22.6658 4.74553
54 1 -12.5276 22.1519 4.65051
55 1 -12.3584 21.2733 4.32915
56 1 -12.4746 20.3521 4.24153
57 1 -13.0995 19.799 3.63595
58 1 -13.3299 18.8949 3.83296
59 1 -13.624 18.167 3.34854
60 1 -14.0964 17.5252 2.80553
61 1 -13.9898 17.4992 1.87891
62 1 -14.092 18.2088 1.25114
63 1 -14.5868 18.9172 0.764485
64 1 -14.9578 19.0382 -0.178704
65 1 -14.9746 18.954 -1.10636
66 1 -14.2719 18.6298 -1.6091
67 1 -14.2533 18.0879 -2.37985
68 1 -14.7816 17.3196 -2.51785
69 1 -14.5627 16.4159 -2.48304
70 1 -14.4682 15.4707 -2.35412
71 1 -14.2016 14.5689 -2.12264
72 1 -13.8842 13.7857 -2.56844
73 1 -13.4643 12.9822 -2.92457
74 1 -13.6024 12.5519 -3.70279
75 1 -13.2178 11.9042 -4.25775
76 1 -12.7109 11.423 -4.90704
77 1 -11.9835 11.0429 -4.45226
78 1 -11.2679 10.5155 -4.52258
79 1 -10.4488 10.18 -4.78091
80 1 -10.2298 9.27219 -4.55384
81 1 -10.2572 8.42069 -4.1499
82 1 -10.5018 7.51195 -3.93776
83 1 -10.5348 6.81768 -3.32435
84 1 -10.1014 6.80843 -2.47256
85 1 -10.1842 7.05407 -1.55409
86 1 -10.9478 7.17748 -1.03257
87 1 -11.606 6.55497 -1.27103
88 1 -12.5216 6.25568 -1.01182
89 1 -13.206 6.62651 -0.456023
90 1 -14.0071 6.59583 0.0412111
91 1 -14.358 6.41079 0.882916
92 1 -14.5568 6.08348 1.68701
93 1 -14.7428 5.47101 2.36471
94 1 -14.8874 5.91573 3.15626
95 1 -15.5857 6.23452 3.70979
96 1 -16.226 6.49196 4.39644
97 1 -16.7096 5.9437 4.98926
98 1 -16.3169 5.26137 5.49636
99 1 -16.0995 4.8053 6.27213
100 1 -16.4893 5.07064 7.06432
101 1 -16.2156 5.05524 7.98207
102 1 -15.9781 4.55842 8.68141
103 1 -16.5555 4.18177 9.32441
104 1 -16.9184 3.30124 9.57066
105 1 -17.3426 2.55534 9.96803
106 1 -17.8734 1.76916 9.75883
107 1 -18.4462 1.06543 9.95461
108 1 -18.8888 0.268955 9.87552
109 1 -19.2805 -0.563488 9.58225
110 1 -19.0636 -1.52251 9.86826
111 1 -19.1213 -2.05016 10.5937
112 1 -19.0629 -2.72685 11.2302
113 1 -19.2318 -3.30736 11.9136
114 1 -19.3842 -4.10395 12.4447
115 1 -18.7379 -3.96617 13.1461
116 1 -17.961 -3.48377 12.9256
117 1 -17.1775 -3.59181 12.4818
118 1 -16.4932 -3.98442 12.0626
119 1 -15.8468 -4.68618 11.9016
120 1 -15.9386 -5.60763 12.2345
121 1 -15.8328 -6.41941 12.6664
122 1 -15.8816 -7.1423 13.3074
123 1 -16.153 -7.62563 14.0435
124 1 -16.4438 -7.8324 14.9698
125 1 -16.506 -8.26688 15.8081
126 1 -16.5906 -9.1537 16.0856
127 1 -17.2951 -9.70031 16.3464
128 1 -17.909 -9.01757 16.2278
ITEM: TIMESTEP
1840000
ITEM: NUMBER OF ATOMS
128
ITEM: BOX BOUNDS mm mm mm
-6.4000000000000000e+01 6.4000000000000000e+01
-6.4000000000000000e+01 6.4000000000000000e+01
-6.4000000000000000e+01 6.4000000000000000e+01
ITEM: ATOMS id type x y z
1 1 -25.6646 38.0038 4.54808
2 1 -26.4488 38.1515 4.06657
3 1 -27.1688 38.3349 3.54009
4 1 -27.8278 38.5925 2.92946
5 1 -28.0653 38.3864 2.02259
6 1 -28.4732 38.0289 1.24195
7 1 -28.4148 37.5318 0.358528
8 1 -28.5747 36.9229 -0.331913
9 1 -28.0402 36.4884 -0.972924
10 1 -27.5954 35.8414 -1.45106
11 1 -26.7603 35.5747 -1.01557
12 1 -26.5414 35.0448 -0.27551
13 1 -26.6333 34.2802 0.309192
14 1 -27.24 33.7914 0.81558
15 1 -27.496 33.0319 1.39044
16 1 -26.8642 32.3492 1.50037
17 1 -27.0879 31.466 1.84932
18 1 -26.7216 30.8474 2.48447
19 1 -26.0559 30.1867 2.66173
20 1 -25.2352 30.3401 3.20922
21 1 -24.3413 30.4931 3.15008
22 1 -23.7164 29.7114 3.24312
23 1 -22.9374 29.6121 2.69243
24 1 -23.5441 29.3449 1.97359
25 1 -23.8134 29.1967 1.05551
26 1 -24.2829 29.5702 0.362713
27 1 -24.345 29.6595 -0.557119
28 1 -24.6242 29.1261 -1.3229
29 1 -25.2322 28.8764 -2.12792
30 1 -25.5538 27.9978 -2.01575
31 1 -24.8442 27.5285 -2.41188
32 1 -24.7606 26.8493 -1.80489
33 1 -24.26 26.1561 -1.3571
34 1 -23.5913 25.5263 -1.23801
35 1 -23.535 24.5976 -0.952251
36 1 -23.2791 23.8444 -0.358942
37 1 -23.2957 23.7328 0.590962
38 1 -22.9432 23.9799 1.40512
39 1 -22.2148 23.9312 2.08752
40 1 -22.1656 23.9811 3.04983
41 1 -22.1243 23.9032 4.02612
42 1 -21.4706 24.2863 4.70736
43 1 -20.6369 24.3795 5.15809
44 1 -19.9917 23.9737 5.64843
45 1 -19.1684 23.5381 5.49886
46 1 -18.33 23.0988 5.47656
47 1 -17.797 22.3287 5.60022
48 1 -17.5109 21.5109 5.49836
49 1 -17.0971 20.6481 5.3974
50 1 -16.3211 20.1675 5.49318
51 1 -15.396 20.1991 5.17878
52 1 -14.54 19.9389 5.35558
53 1 -13.9633 20.2999 4.68257
54 1 -14.1379 20.8377 3.90223
55 1 -14.351 20.8455 3.00853
56 1 -14.4132 20.2858 2.28533
57 1 -13.815 20.0257 1.63064
58 1 -13.0426 19.4547 1.67375
59 1 -12.4025 18.8457 2.00653
60 1 -11.5857 18.7304 2.54055
61 1 -11.0079 18.2544 3.03543
62 1 -10.4641 17.6126 3.47195
63 1 -9.59652 17.3401 3.61005
64 1 -9.44528 17.2476 2.71997
65 1 -9.72944 16.8605 1.91656
66 1 -9.27614 16.6193 1.12662
67 1 -8.69566 16.9452 0.465286
68 1 -8.17138 16.7904 -0.263747
69 1 -7.962 16.3623 -1.10637
70 1 -7.29203 15.6602 -1.19529
71 1 -6.48332 15.2236 -1.37645
72 1 -5.8625 14.5254 -1.20635
73 1 -5.31202 14.3719 -1.94123
74 1 -5.09795 13.509 -2.33621
75 1 -5.85851 12.9507 -2.2795
76 1 -6.72652 12.7289 -1.97988
77 1 -7.24868 11.9764 -2.06942
78 1 -8.22083 11.9194 -2.30437
79 1 -9.07227 11.5766 -2.22757
80 1 -9.64066 10.8554 -2.23761
81 1 -9.96073 10.005 -2.08604
82 1 -10.129 9.50021 -1.25078
83 1 -10.8463 8.93011 -1.05588
84 1 -11.5915 8.52983 -0.565648
85 1 -11.6262 7.85274 0.127149
86 1 -11.9021 6.93555 0.320027
87 1 -12.7847 6.82298 0.666422
88 1 -13.2681 6.54379 1.37954
89 1 -13.8562 6.30543 2.04715
90 1 -14.0605 5.582 2.589
91 1 -14.5415 5.27248 3.32026
92 1 -15.297 5.72043 3.80243
93 1 -15.6005 5.92272 4.70706
94 1 -15.3176 5.82053 5.67204
95 1 -15.5985 5.59604 6.64781
96 1 -15.5681 5.44293 7.55497
97 1 -15.293 5.33013 8.51267
98 1 -15.0804 4.99875 9.34906
99 1 -14.7438 5.38487 10.1536
100 1 -14.4082 5.04721 10.963
101 1 -14.6785 4.86053 11.8978
102 1 -15.1957 4.65876 12.6056
103 1 -15.0339 3.77428 12.5372
104 1 -14.3845 3.05792 12.7069
105 1 -13.9196 2.28097 12.6812
106 1 -13.0783 1.9898 12.9963
107 1 -12.653 1.20423 13.3598
108 1 -12.3314 0.567926 13.9148
109 1 -11.8726 -0.110858 14.5128
110 1 -11.4841 -0.487103 15.2796
111 1 -10.7228 -0.684864 15.7328
112 1 -10.606 -1.41329 16.3736
113 1 -9.87487 -1.7657 16.8579
114 1 -9.52352 -2.06403 17.66
115 1 -9.05245 -2.55615 18.2414
116 1 -8.67051 -2.76991 19.0438
117 1 -8.70415 -2.94464 20.0074
118 1 -9.56236 -2.61055 20.292
119 1 -10.0697 -1.7909 20.2872
120 1 -10.8286 -1.18673 20.1409
121 1 -11.2991 -0.49498 19.661
122 1 -12.1944 -0.551868 19.2603
123 1 -13.0463 -0.231624 19.0556
124 1 -13.3453 0.449206 19.6235
125 1 -13.3886 1.26349 19.1861
126 1 -13.7252 2.11064 18.8144
127 1 -13.5608 2.54285 17.9877
128 1 -13.4894 3.11437 17.2596
ITEM: TIMESTEP
1850000
ITEM: NUMBER OF ATOMS
128
ITEM: BOX BOUNDS mm mm mm
-6.4000000000000000e+01 6.4000000000000000e+01
-6.4000000000000000e+01 6.4000000000000000e+01
-6.4000000000000000e+01 6.4000000000000000e+01
ITEM: ATOMS id type x y z
1 1 -31.0063 31.1493 -5.83301
2 1 -30.9037 31.5546 -4.98987
3 1 -31.2753 32.2376 -4.49401
4 1 -31.3911 33.1479 -4.71306
5 1 -31.5611 34.0257 -4.5919
6 1 -30.7343 34.1544 -4.12259
7 1 -30.542 33.9588 -3.2031
8 1 -29.6831 33.6971 -2.9284
9 1 -29.0024 33.165 -3.20433
10 1 -28.6867 32.2593 -3.3319
11 1 -27.9767 31.6621 -3.69114
12 1 -27.4501 30.9349 -3.48723
13 1 -26.5556 30.6655 -3.67781
14 1 -26.7089 29.8048 -4.11045
15 1 -27.4595 29.2365 -4.27647
16 1 -28.2437 28.8107 -4.52083
17 1 -29.0057 28.7992 -5.05283
18 1 -29.9459 28.4427 -5.04501
19 1 -30.8231 28.1469 -5.3079
20 1 -31.6249 27.9446 -5.86705
21 1 -32.4271 27.3872 -5.99648
22 1 -32.7067 26.8585 -5.27422
23 1 -33.1884 26.072 -5.27825
24 1 -32.6967 25.2926 -5.43161
25 1 -32.275 24.5067 -5.64008
26 1 -31.3146 24.5421 -5.43523
27 1 -30.4369 24.3393 -5.19576
28 1 -29.5759 24.4722 -4.81253
29 1 -29.0798 24.732 -4.01598
30 1 -28.5883 25.3043 -3.51884
31 1 -28.0401 25.2836 -2.79624
32 1 -27.3442 25.5884 -2.26956
33 1 -27.1315 26.2653 -1.7033
34 1 -27.2331 26.5299 -0.808073
35 1 -27.8961 26.0028 -0.417117
36 1 -28.2169 25.2724 0.087289
37 1 -28.0001 24.3417 -0.144718
38 1 -27.2848 23.7212 -0.274007
39 1 -26.4904 23.3447 -0.0574698
40 1 -25.655 23.0535 0.292175
41 1 -24.8845 23.113 -0.229461
42 1 -23.9834 23.2116 0.0214539
43 1 -23.0778 23.4083 0.0771318
44 1 -22.285 23.1616 0.572334
45 1 -21.4484 23.4604 1.03334
46 1 -20.6215 23.8615 1.24698
47 1 -19.8265 24.0565 1.69164
48 1 -19.1136 24.624 1.91399
49 1 -18.5867 25.3427 1.97411
50 1 -18.1529 26.0087 1.54365
51 1 -18.023 26.3882 0.714399
52 1 -17.6194 26.4064 -0.114216
53 1 -17.4685 25.8206 -0.831655
54 1 -17.7272 25.4008 -1.64947
55 1 -17.9396 24.5213 -1.38408
56 1 -18.0294 23.6533 -1.07724
57 1 -18.103 22.9644 -0.416856
58 1 -18.1029 22.7205 0.491427
59 1 -17.4199 22.5309 1.10839
60 1 -16.7083 22.142 1.57601
61 1 -15.8063 22.2895 1.66006
62 1 -14.9211 21.9373 2.04621
63 1 -14.0877 22.0073 2.44833
64 1 -13.3998 22.3534 2.92953
65 1 -12.8983 23.1147 3.23167
66 1 -12.0316 22.9882 3.72282
67 1 -11.401 22.2931 3.51351
68 1 -10.8787 21.5625 3.53094
69 1 -10.5419 20.6959 3.4578
70 1 -10.6937 19.8068 3.2155
71 1 -10.3326 19.1773 2.5745
72 1 -10.2413 18.4238 2.04791
73 1 -9.5755 17.7849 1.72997
74 1 -8.69464 17.5001 1.52572
75 1 -8.58347 16.5755 1.18228
76 1 -8.50823 16.0094 0.418894
77 1 -8.54289 15.6789 -0.459237
78 1 -8.6974 14.8269 -0.857482
79 1 -9.20424 14.1528 -1.18902
80 1 -9.11209 13.4382 -1.78217
81 1 -9.17338 12.7679 -2.46199
82 1 -9.50118 12.032 -2.01647
83 1 -9.51304 11.3482 -1.40349
84 1 -9.48062 10.6468 -0.753107
85 1 -9.30107 9.97467 -0.138293
86 1 -8.82176 9.14898 -0.195644
87 1 -9.36695 8.3663 -0.165443
88 1 -9.45513 7.45345 -0.328024
89 1 -9.75058 6.70641 0.1981
90 1 -9.591 5.87727 0.702844
91 1 -9.71814 5.46925 1.48673
92 1 -9.38358 5.63412 2.35993
93 1 -9.45119 5.25535 3.26435
94 1 -9.35453 5.23379 4.17613
95 1 -9.3626 4.37163 4.58509
96 1 -9.44142 3.68913 5.2408
97 1 -9.14641 2.78017 5.15034
98 1 -8.73124 2.00403 5.01639
99 1 -8.49911 1.21308 5.52687
100 1 -8.60447 0.8286 6.34931
101 1 -8.49764 0.36822 7.12105
102 1 -8.27129 0.42356 8.00234
103 1 -8.46678 0.518999 8.93656
104 1 -9.11078 0.984044 9.42803
105 1 -9.1928 1.65395 10.1358
106 1 -9.39582 2.14461 10.9095
107 1 -9.08016 1.82091 11.6893
108 1 -8.22612 1.61899 12.0496
109 1 -7.9818 0.849875 12.5758
110 1 -7.82595 0.340584 13.2579
111 1 -7.81284 -0.271341 13.9318
112 1 -8.58903 -0.824525 14.1411
113 1 -9.38087 -0.556667 14.5586
114 1 -9.98023 -0.705188 15.2498
115 1 -10.1778 -1.04532 16.1464
116 1 -10.3748 -1.479 16.9491
117 1 -10.4083 -2.1505 17.6707
118 1 -10.2001 -2.71107 18.3549
119 1 -11.1511 -2.92402 18.4289
120 1 -12.0782 -2.62015 18.5266
121 1 -12.524 -1.84706 18.2603
122 1 -13.048 -1.07758 18.1762
123 1 -13.8682 -1.46232 17.8965
124 1 -14.7784 -1.52779 17.8587
125 1 -15.7666 -1.35081 17.8931
126 1 -16.0811 -0.879177 18.5562
127 1 -16.4943 -0.373808 19.2262
128 1 -16.9969 0.268379 19.6616
ITEM: TIMESTEP
1860000
ITEM: NUMBER OF ATOMS
128
ITEM: BOX BOUNDS mm mm mm
-6.4000000000000000e+01 6.4000000000000000e+01
-6.4000000000000000e+01 6.4000000000000000e+01
-6.4000000000000000e+01 6.4000000000000000e+01
ITEM: ATOMS id type x y z
1 1 -29.7126 36.9034 -11.7361
2 1 -30.2745 37.3153 -11.1276
3 1 -30.9221 37.8065 -10.6539
4 1 -31.8743 37.8331 -10.5974
5 1 -32.4896 37.2027 -10.346
6 1 -33.0463 36.4546 -9.91061
7 1 -32.8608 35.8523 -9.22105
8 1 -32.9207 35.3959 -8.41016
9 1 -32.385 34.7399 -8.02403
10 1 -32.2645 34.1483 -7.3129
11 1 -31.9085 33.5663 -6.61417
12 1 -31.9011 32.8896 -5.93723
13 1 -31.8802 32.5872 -4.98104
14 1 -31.6698 32.1744 -4.19421
15 1 -31.1791 31.367 -4.27881
16 1 -30.8588 30.4182 -4.32753
17 1 -30.2026 29.7732 -4.24691
18 1 -29.456 29.2092 -4.52378
19 1 -28.5511 28.8645 -4.42947
20 1 -28.7685 28.1565 -3.88607
21 1 -28.7174 27.4911 -3.26468
22 1 -29.1333 27.0247 -2.58068
23 1 -29.6472 26.9053 -1.82324
24 1 -29.9488 26.8302 -0.964728
25 1 -30.0538 27.0817 -0.0213644
26 1 -30.1526 27.5253 0.769048
27 1 -30.4818 28.1034 1.38319
28 1 -30.8677 28.548 2.11735
29 1 -31.1192 28.4557 2.99315
30 1 -31.2448 28.3429 3.91623
31 1 -30.5134 27.7903 4.10345
32 1 -29.6822 27.5654 4.38168
33 1 -29.6629 28.2535 5.11631
34 1 -29.7942 28.9752 5.66411
35 1 -29.7411 29.5691 6.41942
36 1 -29.4463 30.3136 6.8846
37 1 -28.5279 30.6215 6.95381
38 1 -27.6719 30.3805 6.6805
39 1 -26.8088 30.7094 6.49727
40 1 -26.0302 30.4631 6.09705
41 1 -25.1003 30.3163 6.02841
42 1 -24.2521 30.5757 5.7376
43 1 -23.5079 31.1698 5.57294
44 1 -23.0551 30.6589 4.93688
45 1 -22.4018 30.0398 4.48215
46 1 -22.4169 29.3565 3.86057
47 1 -22.4945 28.5957 3.276
48 1 -21.9076 28.3981 2.54062
49 1 -21.5121 27.7835 1.86097
50 1 -21.1301 27.1536 1.20325
51 1 -20.4142 27.045 0.524036
52 1 -19.9988 26.4926 -0.14628
53 1 -19.1599 26.0803 -0.213626
54 1 -18.7239 25.937 -1.00045
55 1 -18.5365 26.2197 -1.91392
56 1 -18.3898 26.7475 -2.66828
57 1 -18.2917 27.2345 -3.38587
58 1 -17.3323 27.1651 -3.25451
59 1 -16.4198 27.2916 -3.1735
60 1 -15.6025 27.0552 -3.57645
61 1 -14.9382 26.656 -4.17635
62 1 -13.9952 26.7914 -3.89221
63 1 -13.2004 26.7934 -3.40045
64 1 -12.5978 26.1163 -3.08158
65 1 -12.3123 25.2451 -3.10081
66 1 -11.5367 24.776 -2.84911
67 1 -10.8442 24.1491 -2.9995
68 1 -10.9125 23.2114 -3.26704
69 1 -11.2093 22.4339 -3.67219
70 1 -11.7455 21.8122 -3.21811
71 1 -11.9335 20.9279 -2.91475
72 1 -11.5977 20.0864 -3.20547
73 1 -10.8584 19.4883 -3.2739
74 1 -10.2964 18.7182 -3.10639
75 1 -9.82453 18.3564 -2.42244
76 1 -9.62867 17.424 -2.49856
77 1 -9.42257 16.6155 -2.1138
78 1 -9.02627 16.0337 -1.40077
79 1 -8.41385 15.687 -0.712362
80 1 -7.60812 15.2089 -0.531054
81 1 -7.12511 14.4138 -0.571631
82 1 -6.56229 13.7933 -1.00084
83 1 -5.66584 13.3407 -1.03629
84 1 -5.14652 12.5333 -1.08145
85 1 -4.4868 11.8151 -1.20534
86 1 -4.1569 10.9285 -1.44777
87 1 -4.71503 10.5003 -0.841619
88 1 -5.37733 10.4668 -0.14905
89 1 -5.59872 10.1068 0.786879
90 1 -5.38144 9.9506 1.67807
91 1 -5.05816 9.46258 2.41885
92 1 -4.41542 8.80564 2.70859
93 1 -3.83408 8.65535 3.45555
94 1 -4.09015 8.48357 4.33763
95 1 -4.6775 7.91949 4.75281
96 1 -5.48192 7.73069 4.24154
97 1 -5.88558 7.21481 3.59314
98 1 -6.19593 6.49462 3.04396
99 1 -6.31192 5.63657 2.5954
100 1 -6.70513 4.88698 2.19193
101 1 -6.56102 4.0053 2.02456
102 1 -6.28496 3.16634 1.74059
103 1 -6.16795 2.26705 1.77303
104 1 -5.89787 1.53495 2.28484
105 1 -6.14732 0.832564 2.8054
106 1 -6.28679 1.07598 3.68803
107 1 -6.86232 0.984384 4.42227
108 1 -7.23688 0.547015 5.11991
109 1 -7.0021 -0.231752 5.66386
110 1 -6.80988 -0.178219 6.56481
111 1 -6.93112 0.136892 7.42052
112 1 -7.40282 0.856719 7.84991
113 1 -8.08346 1.07925 8.43768
114 1 -8.87732 0.906388 8.94631
115 1 -9.47625 0.519445 9.60627
116 1 -9.96208 0.551463 10.4215
117 1 -10.517 -0.10195 10.7893
118 1 -11.13 -0.773687 11.0564
119 1 -11.4721 -1.30695 11.8086
120 1 -12.17 -1.86641 11.5281
121 1 -12.6498 -2.39736 10.8627
122 1 -13.4388 -2.76915 10.5662
123 1 -14.2954 -2.57145 10.154
124 1 -14.3155 -2.88173 9.22951
125 1 -14.6399 -3.23034 8.41417
126 1 -14.725 -4.13855 8.69211
127 1 -15.0749 -4.75508 9.39918
128 1 -15.3043 -5.67242 9.5628
ITEM: TIMESTEP
1870000
ITEM: NUMBER OF ATOMS
128
ITEM: BOX BOUNDS mm mm mm
-6.4000000000000000e+01 6.4000000000000000e+01
-6.4000000000000000e+01 6.4000000000000000e+01
-6.4000000000000000e+01 6.4000000000000000e+01
ITEM: ATOMS id type x y z
1 1 -27.0056 29.9586 -7.05449
2 1 -27.644 30.3343 -6.51494
3 1 -27.7499 31.0462 -5.90331
4 1 -27.9211 31.3461 -5.02769
5 1 -28.3199 31.2567 -4.04431
6 1 -28.0987 31.5592 -3.17407
7 1 -28.0934 32.2123 -2.50959
8 1 -27.655 32.7891 -1.88921
9 1 -27.207 33.456 -1.3138
10 1 -27.0478 34.2118 -0.858427
11 1 -27.1817 35.0797 -0.431922
12 1 -28.039 35.3601 -0.114759
13 1 -28.6299 35.664 -0.800011
14 1 -29.4742 35.761 -0.414637
15 1 -30.2671 35.5334 -0.0298455
16 1 -31.0668 35.3804 0.501116
17 1 -31.5671 35.1223 1.25318
18 1 -31.6857 35.1991 2.18802
19 1 -31.7414 35.2994 3.13057
20 1 -31.7354 35.3605 4.02481
21 1 -31.4865 35.6021 4.90054
22 1 -30.936 36.2187 5.38392
23 1 -30.291 35.8449 6.0503
24 1 -29.9438 35.0069 6.3083
25 1 -29.6803 34.4758 7.06508
26 1 -29.4465 33.968 7.87816
27 1 -29.4235 34.4085 8.73725
28 1 -28.7611 34.3161 9.47954
29 1 -28.0349 34.8706 9.54082
30 1 -27.585 35.2805 8.76342
31 1 -26.9053 34.6553 8.9068
32 1 -26.4538 34.1802 8.24768
33 1 -26.1566 33.7336 7.5302
34 1 -26.1305 33.0531 6.86929
35 1 -26.7047 32.6191 6.22775
36 1 -27.5189 32.9898 5.87058
37 1 -28.1682 32.8704 5.17589
38 1 -27.9963 32.0742 4.62674
39 1 -27.64 31.2803 4.39169
40 1 -27.357 30.4041 4.5309
41 1 -27.8609 29.6157 4.66598
42 1 -27.9458 28.7129 4.78913
43 1 -28.515 28.307 4.12974
44 1 -28.5449 28.0718 3.23154
45 1 -27.6084 27.9642 3.05577
46 1 -27.1653 27.2121 2.65308
47 1 -27.0758 26.6315 1.94239
48 1 -26.8176 26.2438 1.14197
49 1 -26.2904 25.8219 1.71438
50 1 -25.7031 25.1468 2.03583
51 1 -24.7593 25.0288 1.91191
52 1 -23.992 25.2958 1.42368
53 1 -23.7052 25.7507 0.645023
54 1 -23.0528 25.5827 -0.0264652
55 1 -22.0917 25.4095 -0.078902
56 1 -21.5355 25.8906 0.486242
57 1 -21.0398 26.1805 1.28001
58 1 -20.4665 26.2861 2.01024
59 1 -20.0539 25.8146 2.71575
60 1 -19.5695 25.0758 3.12001
61 1 -19.2425 24.3411 2.65718
62 1 -19.1757 23.5549 2.15393
63 1 -18.9033 22.7257 2.55435
64 1 -17.9643 22.8565 2.24831
65 1 -17.2465 22.8278 1.62614
66 1 -16.8488 23.0216 0.809714
67 1 -15.9342 22.8497 0.638198
68 1 -14.9989 22.8136 0.504843
69 1 -14.1636 22.6504 0.97427
70 1 -13.9796 21.9222 1.55606
71 1 -13.7338 20.9532 1.60247
72 1 -12.8671 20.7476 1.507
73 1 -11.918 20.8583 1.39461
74 1 -11.3479 21.114 0.684745
75 1 -11.2365 20.4881 -0.0597264
76 1 -11.4964 19.6279 -0.477366
77 1 -11.3441 18.6815 -0.412333
78 1 -10.8736 18.0835 0.133107
79 1 -10.8453 17.1837 0.43844
80 1 -11.1022 16.5741 1.11665
81 1 -10.8693 15.7733 1.55478
82 1 -10.7724 14.9072 1.58302
83 1 -10.2855 14.0695 1.6159
84 1 -10.2474 13.1121 1.66929
85 1 -10.7132 12.3435 1.90695
86 1 -11.0952 12.2557 2.73854
87 1 -10.9435 11.647 3.46517
88 1 -10.872 11.3659 4.33754
89 1 -10.6415 10.8548 5.07046
90 1 -10.4938 10.3134 5.82545
91 1 -10.2441 9.47176 6.08834
92 1 -10.0408 8.67912 5.63582
93 1 -9.44535 8.06509 5.1948
94 1 -9.42205 7.25639 4.72399
95 1 -9.1228 7.14788 3.83422
96 1 -8.67201 6.63577 3.18755
97 1 -7.95499 6.12014 2.9053
98 1 -7.59665 5.17926 3.00436
99 1 -7.29671 4.29351 2.81572
100 1 -6.67846 3.68599 2.51945
101 1 -6.0059 4.15222 2.01921
102 1 -5.52655 4.8278 2.52169
103 1 -5.31079 5.12278 3.41887
104 1 -5.04725 5.22848 4.31817
105 1 -5.46448 5.62103 5.11452
106 1 -5.93215 5.65646 5.88658
107 1 -6.05184 5.17662 6.675
108 1 -6.29336 4.22819 6.66162
109 1 -6.98813 3.67032 6.82682
110 1 -7.61488 3.06401 6.3564
111 1 -8.38874 2.77353 5.89088
112 1 -9.03747 2.39798 5.29632
113 1 -9.24063 1.66421 4.76265
114 1 -9.98619 1.09005 4.98165
115 1 -10.3307 0.487092 5.649
116 1 -11.0237 -0.178303 5.50399
117 1 -11.8545 0.0518258 5.12901
118 1 -12.3678 0.713092 4.76775
119 1 -12.974 1.4045 4.87947
120 1 -13.3528 2.12891 5.3972
121 1 -13.5594 2.93197 5.77794
122 1 -13.0552 3.66043 5.96765
123 1 -12.286 4.12086 6.2477
124 1 -11.6373 4.82731 6.21516
125 1 -10.6575 4.89791 6.1319
126 1 -10.1575 4.71586 6.85094
127 1 -9.50018 4.73845 7.52019
128 1 -9.9285 5.5714 7.79332
ITEM: TIMESTEP
1880000
ITEM: NUMBER OF ATOMS
128
ITEM: BOX BOUNDS mm mm mm
-6.4000000000000000e+01 6.4000000000000000e+01
-6.4000000000000000e+01 6.4000000000000000e+01
-6.4000000000000000e+01 6.4000000000000000e+01
ITEM: ATOMS id type x y z
1 1 -23.6567 38.783 -4.88098
2 1 -23.9366 38.3422 -4.12055
3 1 -24.1629 38.2598 -3.18925
4 1 -24.4168 38.11 -2.31015
5 1 -24.9324 38.1889 -1.57488
6 1 -25.8566 38.1374 -1.37233
7 1 -26.6075 38.7 -1.32241
8 1 -27.509 38.7689 -1.26926
9 1 -28.4093 38.5567 -1.14964
10 1 -29.2096 38.3278 -0.733441
11 1 -29.9745 37.8376 -0.468947
12 1 -30.1052 37.5587 0.394388
13 1 -30.2289 37.1137 1.24464
14 1 -30.0678 36.2188 1.54683
15 1 -29.9526 35.9224 2.43459
16 1 -30.1415 36.0488 3.37505
17 1 -30.6674 36.2767 4.09289
18 1 -30.1545 36.2698 4.88742
19 1 -30.4161 36.0764 5.79625
20 1 -31.0997 35.5431 6.06594
21 1 -31.1634 34.639 5.76426
22 1 -31.2347 33.751 5.78335
23 1 -30.9816 32.9053 6.02306
24 1 -30.7286 32.2624 6.67497
25 1 -31.2371 31.5443 6.95208
26 1 -31.3942 30.8156 7.48316
27 1 -31.1458 29.9132 7.62538
28 1 -30.7423 29.096 7.85717
29 1 -30.2137 28.4784 8.27012
30 1 -30.1576 27.498 8.14541
31 1 -29.6182 26.8047 7.88632
32 1 -28.915 26.7036 7.26732
33 1 -28.0763 26.8554 6.89785
34 1 -27.9458 27.8541 7.0112
35 1 -27.9274 28.6538 6.39066
36 1 -28.0709 29.5233 5.99524
37 1 -27.8565 29.7543 5.0928
38 1 -27.1912 29.4267 4.53476
39 1 -26.9843 29.3522 3.63952
40 1 -26.2092 29.0389 3.08679
41 1 -25.5502 29.2459 2.41159
42 1 -25.7528 29.0409 1.48843
43 1 -24.9538 29.0049 0.854429
44 1 -24.2279 29.3742 0.449675
45 1 -23.4616 29.8984 0.540673
46 1 -22.5544 29.7821 0.289168
47 1 -22.1485 29.196 -0.338884
48 1 -21.995 28.3761 -0.819319
49 1 -21.7026 28.1736 -1.68422
50 1 -21.0549 27.9592 -2.31742
51 1 -20.6097 27.7081 -3.1451
52 1 -20.5269 27.3093 -4.0368
53 1 -19.5677 27.5876 -3.90413
54 1 -18.6412 27.3744 -4.17694
55 1 -18.3497 27.3556 -3.3149
56 1 -17.8896 27.0482 -2.59441
57 1 -17.3009 26.8458 -1.91635
58 1 -16.461 26.553 -2.18126
59 1 -15.8626 25.8921 -1.80448
60 1 -16.0016 25.0019 -1.56005
61 1 -16.0359 24.0986 -1.30099
62 1 -15.5612 23.615 -0.704732
63 1 -15.1798 23.2825 0.0754086
64 1 -15.3473 23.1198 0.977647
65 1 -15.2303 22.6713 1.82535
66 1 -14.8654 21.8106 1.82925
67 1 -14.6127 21.039 2.27376
68 1 -14.2275 20.2725 2.59101
69 1 -13.6704 20.3509 3.3891
70 1 -13.8228 19.9427 4.19075
71 1 -13.6358 19.933 5.0936
72 1 -13.608 19.7481 5.99412
73 1 -13.7847 19.453 6.93819
74 1 -13.4238 19.0928 7.70581
75 1 -12.798 18.3713 8.05112
76 1 -12.5615 17.5069 8.27111
77 1 -12.3822 16.5674 8.3373
78 1 -12.0168 15.8546 7.78564
79 1 -11.9832 16.0057 6.8695
80 1 -11.5856 15.3626 6.27254
81 1 -11.8181 14.719 5.57891
82 1 -12.4156 14.1027 5.17869
83 1 -12.7699 13.8303 4.30915
84 1 -12.8407 13.6148 3.36831
85 1 -12.6715 13.4016 2.45976
86 1 -12.9461 12.9447 1.75257
87 1 -13.2984 12.0971 1.82632
88 1 -13.518 11.2739 2.29704
89 1 -13.3577 10.8676 3.11873
90 1 -13.1227 10.6734 3.97072
91 1 -12.4666 10.4348 4.6589
92 1 -12.0462 9.98744 5.37913
93 1 -11.4558 9.59844 6.04866
94 1 -11.3275 8.81176 6.56085
95 1 -11.5017 8.00573 6.9677
96 1 -11.2597 7.11789 7.05162
97 1 -10.738 6.31494 7.03649
98 1 -10.7596 5.70961 7.76208
99 1 -10.6801 4.91441 8.33055
100 1 -9.89336 4.52331 8.52476
101 1 -9.56818 3.61792 8.41515
102 1 -8.69865 3.72682 7.9421
103 1 -8.00079 4.26413 7.63597
104 1 -7.11931 4.57033 7.7018
105 1 -6.33756 4.78985 7.1423
106 1 -5.9643 5.01903 6.31052
107 1 -6.31521 4.69802 5.49546
108 1 -6.82836 4.45407 6.23101
109 1 -7.69249 4.65817 6.01477
110 1 -8.54848 4.45358 5.64649
111 1 -9.49465 4.68772 5.45499
112 1 -10.213 5.19756 5.17124
113 1 -11.1714 5.29755 4.98439
114 1 -11.9073 5.09388 4.41796
115 1 -12.4087 4.75086 5.12872
116 1 -12.5598 3.78202 4.88812
117 1 -13.3702 3.5589 4.60254
118 1 -14.2147 3.13808 4.54897
119 1 -14.4655 2.33519 4.95129
120 1 -13.7969 1.72001 4.89267
121 1 -13.1563 1.09888 5.13957
122 1 -12.9846 0.290726 4.67615
123 1 -12.4098 -0.454336 4.69711
124 1 -11.6428 -0.871431 5.00791
125 1 -11.1114 -1.36438 5.59085
126 1 -11.3105 -1.95304 6.33765
127 1 -11.3463 -2.25977 7.20421
128 1 -11.6747 -2.45583 8.07549
ITEM: TIMESTEP
1890000
ITEM: NUMBER OF ATOMS
128
ITEM: BOX BOUNDS mm mm mm
-6.4000000000000000e+01 6.4000000000000000e+01
-6.4000000000000000e+01 6.4000000000000000e+01
-6.4000000000000000e+01 6.4000000000000000e+01
ITEM: ATOMS id type x y z
1 1 -25.4573 35.3276 8.23041
2 1 -26.2278 35.8707 8.41625
3 1 -26.6438 35.4832 7.68539
4 1 -26.8753 34.6953 7.20884
5 1 -26.9672 33.7882 7.14845
6 1 -26.752 33.0801 6.58768
7 1 -26.8004 32.4513 5.91092
8 1 -26.9751 31.705 5.41327
9 1 -27.6214 31.0582 5.34583
10 1 -28.2014 30.5487 5.87104
11 1 -29.0497 30.3469 5.56727
12 1 -29.9855 30.5025 5.51881
13 1 -30.1162 31.0224 6.35979
14 1 -30.7418 31.4276 6.91343
15 1 -31.4343 32.0688 7.11577
16 1 -32.2562 32.5017 6.87218
17 1 -32.2763 33.2442 7.47726
18 1 -31.9245 34.0839 7.80644
19 1 -32.4524 34.249 8.57939
20 1 -33.3641 34.0714 8.75891
21 1 -33.8402 33.6447 9.38078
22 1 -34.5852 33.0863 9.41879
23 1 -34.3496 32.295 8.94422
24 1 -33.7198 31.7779 8.40689
25 1 -33.6282 30.9727 7.95667
26 1 -33.2605 30.0429 7.82809
27 1 -32.6309 29.4016 7.42822
28 1 -32.591 29.3653 6.47673