ITEM: TIMESTEP
1040000
ITEM: NUMBER OF ATOMS
128
ITEM: BOX BOUNDS mm mm mm
-6.4000000000000000e+01 6.4000000000000000e+01
-6.4000000000000000e+01 6.4000000000000000e+01
-6.4000000000000000e+01 6.4000000000000000e+01
ITEM: ATOMS id type x y z
1 1 2.46007 7.58442 -9.17929
2 1 3.09664 7.12182 -9.79816
3 1 3.66929 7.83361 -9.41972
4 1 4.18338 8.33672 -8.83205
5 1 4.51551 8.98287 -9.4399
6 1 4.2115 9.70905 -10.0058
7 1 4.99393 10.0725 -10.388
8 1 4.61121 10.721 -10.9301
9 1 5.25835 11.3658 -10.7812
10 1 4.49119 11.9053 -11.0104
11 1 4.81426 12.5274 -10.3897
12 1 4.78403 13.3268 -9.83676
13 1 4.4657 14.16 -9.57107
14 1 5.43364 14.3776 -9.4728
15 1 6.1408 13.7083 -9.66774
16 1 6.48249 12.8087 -9.82731
17 1 7.16056 12.2884 -10.2817
18 1 8.10281 11.9533 -10.1097
19 1 7.64606 11.1546 -10.4171
20 1 6.79449 11.2836 -10.0865
21 1 6.18906 10.7765 -9.58091
22 1 5.42952 10.5049 -9.10498
23 1 6.0262 9.91239 -8.71003
24 1 6.3331 9.09503 -8.45903
25 1 5.56667 8.58233 -8.2483
26 1 5.30102 8.86497 -7.37241
27 1 5.66724 8.76719 -6.45541
28 1 5.83522 8.84202 -5.50211
29 1 5.23615 8.64584 -4.84501
30 1 4.45229 8.89318 -4.38643
31 1 3.63868 9.34115 -4.708
32 1 3.27551 9.44864 -3.79762
33 1 2.37487 9.53897 -3.49028
34 1 2.66626 10.3563 -3.8087
35 1 3.15024 10.8227 -4.47314
36 1 3.05134 11.756 -4.60589
37 1 2.19133 11.6744 -4.18466
38 1 2.65201 11.9678 -3.39204
39 1 3.55668 12.2563 -3.29437
40 1 4.30701 12.5796 -3.85905
41 1 4.28318 12.6485 -4.78164
42 1 4.03067 13.5631 -5.13454
43 1 3.82367 13.6743 -6.09159
44 1 3.18426 14.3176 -5.90093
45 1 2.86895 14.6365 -6.73975
46 1 2.11515 14.6107 -7.24305
47 1 1.96255 15.4369 -6.8672
48 1 1.13828 15.1255 -7.2663
49 1 0.290915 14.7701 -7.4218
50 1 -0.600414 14.7377 -7.63324
51 1 -0.638647 13.9488 -7.1577
52 1 0.0122888 13.3689 -7.44319
53 1 -0.242886 12.4597 -7.49753
54 1 -0.35221 11.897 -6.73184
55 1 -0.0239523 12.7272 -6.53361
56 1 -0.681153 13.2596 -6.12067
57 1 -0.890861 13.3411 -5.18064
58 1 -1.36396 12.9829 -4.47458
59 1 -1.73747 12.1111 -4.31018
60 1 -1.92591 12.1447 -3.43608
61 1 -1.92828 13.0875 -3.51208
62 1 -2.13232 13.6868 -2.78644
63 1 -2.83033 14.3383 -2.79
64 1 -3.45067 14.0874 -3.47026
65 1 -4.39589 14.2343 -3.28076
66 1 -4.19412 13.7495 -2.4618
67 1 -4.06311 14.6751 -2.32059
68 1 -3.65028 15.0469 -1.57947
69 1 -3.53004 14.3811 -0.907368
70 1 -3.05807 14.725 -0.117065
71 1 -2.75242 14.7725 0.767951
72 1 -2.52455 15.6921 0.888567
73 1 -2.99771 16.505 0.935111
74 1 -3.10451 17.076 1.6318
75 1 -3.70526 16.976 2.32133
76 1 -3.30668 16.2762 2.81655
77 1 -3.4873 15.4181 2.52984
78 1 -4.14736 15.0302 2.99858
79 1 -4.89571 14.5054 2.64354
80 1 -5.77996 14.7069 2.85835
81 1 -6.07574 14.1086 2.22676
82 1 -5.73453 13.3298 1.76517
83 1 -5.63355 13.809 0.966828
84 1 -4.85991 14.1752 0.610927
85 1 -4.50545 13.3127 0.655298
86 1 -3.9514 12.6485 0.213352
87 1 -4.35223 11.8028 0.46051
88 1 -4.107 11.6464 1.36824
89 1 -4.46262 12.2433 2.07609
90 1 -5.36705 12.104 1.9457
91 1 -6.17243 11.8148 1.48499
92 1 -6.61084 12.5718 1.77858
93 1 -7.30653 11.9977 1.75472
94 1 -8.08226 11.7812 1.23026
95 1 -8.06633 10.8183 1.29169
96 1 -7.88719 10.134 1.95628
97 1 -8.45696 10.2543 2.66407
98 1 -9.21976 10.8108 2.77192
99 1 -10.117 10.8948 2.54588
100 1 -9.80321 10.4773 1.79578
101 1 -10.7034 10.2262 1.7567
102 1 -10.982 9.83262 2.54359
103 1 -11.4157 9.21501 3.12861
104 1 -12.16 8.67562 2.71907
105 1 -12.8885 8.33243 2.18841
106 1 -12.4286 7.58406 1.9359
107 1 -11.5553 7.58371 2.27796
108 1 -11.3407 7.66173 1.40061
109 1 -11.4912 7.16131 0.613106
110 1 -11.6542 6.45658 1.21211
111 1 -11.2059 5.66584 1.4389
112 1 -11.1592 4.67348 1.5278
113 1 -11.7565 4.17598 1.00474
114 1 -11.7956 4.42108 0.0829208
115 1 -11.966 3.52277 -0.239384
116 1 -11.74 2.79566 -0.776673
117 1 -11.9018 2.51816 -1.67284
118 1 -11.5596 1.77247 -2.07315
119 1 -12.28 1.23229 -1.7543
120 1 -12.1851 0.313548 -1.56875
121 1 -12.7001 -0.392694 -1.92446
122 1 -13.3546 -1.06131 -1.9522
123 1 -13.8179 -0.294983 -2.17371
124 1 -13.4992 0.157523 -2.94804
125 1 -14.4034 0.42367 -2.93944
126 1 -14.1953 0.785127 -2.04835
127 1 -14.2873 1.54448 -2.60389
128 1 -14.2623 2.48036 -2.67839
ITEM: TIMESTEP
1050000
ITEM: NUMBER OF ATOMS
128
ITEM: BOX BOUNDS mm mm mm
-6.4000000000000000e+01 6.4000000000000000e+01
-6.4000000000000000e+01 6.4000000000000000e+01
-6.4000000000000000e+01 6.4000000000000000e+01
ITEM: ATOMS id type x y z
1 1 10.5543 8.38801 -11.6274
2 1 9.93969 8.55452 -10.9162
3 1 9.17672 8.07991 -11.067
4 1 9.57056 7.6768 -10.2907
5 1 9.02799 7.24956 -9.66941
6 1 8.47377 7.29768 -10.4613
7 1 7.56838 7.39092 -10.6564
8 1 7.02174 7.05547 -11.3846
9 1 7.49289 7.80146 -11.7115
10 1 7.50139 8.70111 -11.8284
11 1 8.38082 8.9267 -11.8368
12 1 8.01105 9.36359 -12.5263
13 1 7.53618 10.0791 -12.9514
14 1 7.08491 9.76154 -13.7319
15 1 6.50815 9.15102 -14.2274
16 1 6.09498 9.96012 -14.5502
17 1 6.24449 10.6894 -13.9578
18 1 5.46345 11.2316 -13.8278
19 1 4.82295 11.9701 -13.5499
20 1 4.14587 11.4892 -13.116
21 1 4.16709 12.0488 -12.3429
22 1 4.75402 12.6501 -11.9362
23 1 4.82473 12.004 -11.2075
24 1 4.22334 12.3247 -10.5202
25 1 4.12604 12.9219 -9.78966
26 1 3.77092 13.3851 -9.07796
27 1 4.25578 14.1438 -9.51651
28 1 3.32706 14.4134 -9.84011
29 1 2.37513 14.4005 -9.78529
30 1 1.90265 14.5559 -8.93928
31 1 0.987329 14.7919 -9.24088
32 1 0.288176 14.4556 -9.77866
33 1 -0.00919443 13.9474 -10.4768
34 1 -0.783144 13.3122 -10.3358
35 1 -1.4496 13.9464 -10.5919
36 1 -1.26666 13.5382 -11.3647
37 1 -0.789223 12.7888 -11.2359
38 1 -0.388749 12.9742 -12.0916
39 1 -0.54305 12.05 -11.9391
40 1 -1.4013 11.8292 -11.5752
41 1 -2.02809 11.2475 -11.9414
42 1 -1.21433 10.733 -11.8408
43 1 -0.499676 10.9962 -11.3261
44 1 0.173914 10.7708 -10.6468
45 1 -0.39061 11.1707 -10.0117
46 1 -0.55791 11.1063 -9.11385
47 1 -1.10058 11.7406 -8.71191
48 1 -1.42457 12.2539 -7.99445
49 1 -0.679171 12.7781 -7.69575
50 1 0.0178495 12.213 -7.46453
51 1 0.24229 12.7935 -6.7285
52 1 0.233583 13.6397 -7.07093
53 1 0.273195 14.362 -6.43592
54 1 0.617571 14.14 -5.55459
55 1 0.503417 14.2144 -4.62593
56 1 -0.0767786 13.4745 -4.56347
57 1 -0.705538 13.2123 -5.22112
58 1 -1.33256 13.0604 -4.51926
59 1 -1.22262 12.9132 -3.58573
60 1 -1.29248 13.5793 -2.958
61 1 -1.42872 14.4397 -3.38965
62 1 -2.19856 14.4967 -2.85659
63 1 -2.29419 14.7912 -1.93936
64 1 -2.08289 14.2087 -1.24134
65 1 -2.59259 13.4207 -1.44918
66 1 -3.13958 13.2465 -2.23881
67 1 -3.5649 14.0403 -2.02169
68 1 -4.35942 14.1856 -1.46369
69 1 -4.92201 14.8917 -1.69898
70 1 -5.53604 14.3905 -1.19377
71 1 -6.47878 14.2288 -1.07359
72 1 -7.21476 13.6508 -1.14986
73 1 -7.85385 13.9822 -1.82967
74 1 -8.40307 14.4213 -1.14664
75 1 -9.11193 13.9604 -1.61609
76 1 -9.44327 13.4327 -0.941257
77 1 -9.29434 12.7479 -0.40832
78 1 -9.79065 12.439 0.311471
79 1 -9.23736 13.0116 0.83146
80 1 -9.10385 12.4022 1.50869
81 1 -9.40095 11.7551 2.1359
82 1 -8.55511 11.4267 2.01172
83 1 -8.35106 11.3777 1.06928
84 1 -7.63339 10.8879 0.764006
85 1 -7.19631 10.1146 1.15694
86 1 -6.5393 10.7655 0.983181
87 1 -6.15312 10.5119 1.82768
88 1 -6.69553 9.91838 2.29392
89 1 -6.89098 9.26289 2.93858
90 1 -7.12113 8.421 2.56096
91 1 -6.37007 8.4097 2.00005
92 1 -5.66622 8.17581 2.55313
93 1 -5.17117 7.97166 3.30885
94 1 -4.53319 7.55872 3.87149
95 1 -5.32806 7.12158 3.92521
96 1 -5.11288 6.39318 4.41884
97 1 -5.07215 5.45983 4.20915
98 1 -4.42649 4.91171 4.54374
99 1 -4.40245 3.96597 4.46413
100 1 -3.90503 3.19798 4.77557
101 1 -4.27471 2.4689 4.33833
102 1 -4.36903 1.47502 4.22103
103 1 -4.92402 1.80403 4.86739
104 1 -4.9755 1.23681 5.65899
105 1 -5.73494 0.796055 5.94043
106 1 -6.51815 0.937248 6.43615
107 1 -7.09681 0.26201 6.39547
108 1 -7.82342 0.28827 5.77782
109 1 -7.63976 0.250767 4.8742
110 1 -7.91108 -0.354048 4.20583
111 1 -7.73001 -0.654318 3.34419
112 1 -8.23093 -0.923262 2.56508
113 1 -9.00648 -0.544042 2.91183
114 1 -9.53033 -0.918123 2.2644
115 1 -9.95652 -0.882499 1.44392
116 1 -10.4027 -0.201547 0.993711
117 1 -9.709 0.183599 0.557738
118 1 -9.68942 0.0752828 -0.379806
119 1 -10.1738 0.435459 -1.08829
120 1 -10.3157 0.849286 -1.97876
121 1 -10.4644 0.481716 -2.84643
122 1 -11.0142 -0.19041 -2.42495
123 1 -11.3172 -0.572817 -1.60205
124 1 -10.9989 -1.2678 -2.12694
125 1 -10.5407 -1.50356 -2.86829
126 1 -9.89375 -1.83652 -3.47126
127 1 -9.87578 -2.7571 -3.58551
128 1 -10.1129 -3.27013 -4.2982
ITEM: TIMESTEP
1060000
ITEM: NUMBER OF ATOMS
128
ITEM: BOX BOUNDS mm mm mm
-6.4000000000000000e+01 6.4000000000000000e+01
-6.4000000000000000e+01 6.4000000000000000e+01
-6.4000000000000000e+01 6.4000000000000000e+01
ITEM: ATOMS id type x y z
1 1 8.73444 10.1338 -11.9489
2 1 8.85321 9.23679 -11.8556
3 1 8.71 8.36145 -11.5427
4 1 8.18161 7.99672 -12.2668
5 1 7.33081 8.29802 -11.8332
6 1 6.55835 8.72455 -11.6148
7 1 5.92412 8.05349 -11.6181
8 1 5.5788 8.37184 -12.4508
9 1 5.95592 9.19535 -12.392
10 1 6.35088 10.0303 -12.0786
11 1 6.36123 10.1118 -11.1595
12 1 5.78206 10.9223 -11.041
13 1 5.97 11.8338 -10.9195
14 1 5.60312 12.6742 -10.9757
15 1 5.23049 13.4659 -11.2067
16 1 4.50353 13.7212 -10.7298
17 1 3.66935 13.7042 -10.3525
18 1 3.17201 14.4435 -10.5966
19 1 2.81327 15.2839 -10.4694
20 1 2.9162 15.7765 -9.6309
21 1 2.26739 16.1549 -9.05472
22 1 1.51743 16.5634 -8.78868
23 1 1.06412 15.7105 -8.56511
24 1 0.570216 15.1154 -9.16064
25 1 0.36164 15.656 -9.88617
26 1 0.642958 16.5528 -10.0646
27 1 0.18222 17.0381 -9.42029
28 1 -0.646963 16.8521 -9.03689
29 1 -1.41144 16.5611 -8.57025
30 1 -1.32135 15.5739 -8.67123
31 1 -0.533328 15.3142 -8.28315
32 1 -0.361841 15.8697 -7.55692
33 1 -0.504802 16.7779 -7.33529
34 1 -0.90462 17.5804 -7.3954
35 1 -1.20866 17.3898 -6.56866
36 1 -1.44404 16.5182 -6.21611
37 1 -1.92808 17.0073 -5.50524
38 1 -2.71347 16.7482 -5.89617
39 1 -3.00819 16.0208 -5.37083
40 1 -3.26996 15.1199 -5.60654
41 1 -3.04706 14.3722 -6.15256
42 1 -2.81264 13.4955 -6.08135
43 1 -1.89683 13.7442 -6.25958
44 1 -1.53794 13.0269 -5.84652
45 1 -1.82134 13.3508 -4.93267
46 1 -1.20756 14.0469 -5.09308
47 1 -1.39887 14.5705 -4.38579
48 1 -1.10945 15.4598 -4.57664
49 1 -1.72127 16.2414 -4.65734
50 1 -2.57579 16.7234 -4.7295
51 1 -2.96422 16.7092 -3.90086
52 1 -3.64844 17.2633 -3.58882
53 1 -3.68908 17.1943 -2.6506
54 1 -4.04728 17.8811 -2.11728
55 1 -3.50422 17.8136 -1.36216
56 1 -2.82763 18.4569 -1.24017
57 1 -3.49069 19.15 -1.19597
58 1 -3.39174 19.8996 -1.72635
59 1 -4.19035 20.0647 -2.20447
60 1 -4.19058 20.4451 -3.06462
61 1 -3.78714 19.6268 -3.31486
62 1 -3.95603 18.9689 -4.02426
63 1 -4.6999 18.5595 -4.33306
64 1 -5.61086 18.4595 -4.26827
65 1 -6.20335 18.327 -5.02809
66 1 -7.02821 17.8068 -5.11235
67 1 -7.76124 17.3829 -4.94927
68 1 -7.39125 16.5939 -4.536
69 1 -6.68365 15.8013 -4.45023
70 1 -6.35521 15.5138 -3.60655
71 1 -7.02347 15.3017 -2.98357
72 1 -7.36886 14.4418 -3.16035
73 1 -6.77442 13.8959 -2.67314
74 1 -6.10187 13.6223 -2.03877
75 1 -5.79749 13.334 -1.23019
76 1 -5.71396 13.755 -0.402033
77 1 -5.98348 12.8853 -0.240846
78 1 -6.73947 12.3063 -0.27946
79 1 -7.4262 12.2333 0.311441
80 1 -7.93177 11.5609 0.678867
81 1 -7.29121 11.2989 1.29464
82 1 -7.36955 10.4381 0.92062
83 1 -7.22911 9.51512 0.816538
84 1 -7.14213 9.56423 1.71689
85 1 -6.29658 9.76437 2.03207
86 1 -5.57407 9.6353 1.42366
87 1 -5.15362 8.89136 1.09715
88 1 -5.67101 8.95234 0.322728
89 1 -6.30152 8.23952 0.0256549
90 1 -7.13367 8.15009 -0.32725
91 1 -6.48039 7.71061 -0.903585
92 1 -5.88864 7.70502 -1.65331
93 1 -4.88922 7.61651 -1.7076
94 1 -4.06163 7.89419 -1.96274
95 1 -3.29488 7.43479 -2.27432
96 1 -2.5227 7.87734 -2.43758
97 1 -1.97574 7.90473 -1.67207
98 1 -1.63465 8.43027 -0.957684
99 1 -1.40917 8.31041 -0.0678329
100 1 -1.10783 7.47371 0.268566
101 1 -1.7655 6.84385 0.547242
102 1 -1.75441 6.18025 -0.102512
103 1 -2.12278 6.77597 -0.838884
104 1 -2.86295 6.49413 -0.369851
105 1 -3.73164 6.39345 -0.0553815
106 1 -3.23399 5.62517 0.237272
107 1 -3.11387 4.75437 0.0792714
108 1 -2.90024 4.72741 1.04075
109 1 -2.36794 3.93987 0.944355
110 1 -3.11637 3.66998 0.398332
111 1 -3.15401 2.88778 -0.107544
112 1 -2.46379 3.25536 -0.701006
113 1 -2.71084 4.1389 -1.07401
114 1 -2.23672 4.9283 -1.35127
115 1 -2.96247 5.53541 -1.24771
116 1 -3.76846 5.3005 -0.923994
117 1 -4.65812 5.65054 -0.559856
118 1 -4.93607 4.8874 -1.02506
119 1 -5.35057 4.07751 -1.26687
120 1 -4.78442 3.36676 -1.42539
121 1 -4.12956 3.75196 -2.01247
122 1 -4.13516 3.55953 -2.92599
123 1 -4.56198 2.7635 -2.80464
124 1 -4.41987 2.02457 -2.2353
125 1 -4.50973 1.10096 -2.53047
126 1 -4.25419 1.13352 -1.59143
127 1 -5.1858 0.868731 -1.45392
128 1 -6.13568 1.04563 -1.53779
ITEM: TIMESTEP
1070000
ITEM: NUMBER OF ATOMS
128
ITEM: BOX BOUNDS mm mm mm
-6.4000000000000000e+01 6.4000000000000000e+01
-6.4000000000000000e+01 6.4000000000000000e+01
-6.4000000000000000e+01 6.4000000000000000e+01
ITEM: ATOMS id type x y z
1 1 9.77421 13.1147 -3.52946
2 1 9.12003 13.1704 -4.17347
3 1 8.24731 13.3851 -4.42512
4 1 7.31118 13.4659 -4.38646
5 1 7.17917 12.6743 -3.90675
6 1 6.99203 11.9819 -4.46885
7 1 7.06862 11.6222 -5.30301
8 1 7.20964 11.6926 -6.23607
9 1 6.4134 11.5552 -6.70797
10 1 6.32321 11.2837 -7.61975
11 1 5.69673 10.983 -8.24281
12 1 4.91652 11.5699 -8.23385
13 1 4.49743 12.4324 -8.30663
14 1 3.67596 12.8082 -8.75317
15 1 2.83186 12.8196 -9.11807
16 1 2.37028 13.6703 -9.06724
17 1 2.98788 13.8966 -8.41159
18 1 3.56539 14.6882 -8.41693
19 1 3.22759 15.2732 -7.68963
20 1 3.11773 15.818 -6.97075
21 1 2.2079 16.2039 -7.04983
22 1 2.40761 16.1243 -6.16308
23 1 2.18878 15.7277 -5.32925
24 1 1.9599 16.0552 -4.44388
25 1 2.07051 16.4927 -3.62187
26 1 1.86563 16.9355 -2.89507
27 1 0.997971 16.7862 -2.8505
28 1 0.65566 15.9675 -2.69122
29 1 -0.0449098 16.687 -2.87055
30 1 -0.421656 15.9358 -2.52767
31 1 -0.431746 16.6432 -1.88404
32 1 -0.816364 17.4235 -2.2715
33 1 -1.17038 18.3209 -2.06274
34 1 -0.853305 19.1207 -2.47046
35 1 -1.37003 19.8837 -2.37826
36 1 -1.75376 19.9483 -3.23481
37 1 -0.942925 19.8559 -3.80761
38 1 -1.21757 19.0161 -4.0017
39 1 -2.01095 19.3964 -4.38009
40 1 -2.84053 19.456 -4.77437
41 1 -2.69753 18.6724 -5.25839
42 1 -3.42252 18.1403 -5.15351
43 1 -4.24153 17.775 -4.90559
44 1 -4.97229 17.1068 -4.92408
45 1 -5.87938 16.9459 -4.87862
46 1 -6.7211 17.3714 -4.92554
47 1 -7.57884 17.0394 -4.86934
48 1 -7.85349 16.1293 -4.8065
49 1 -7.12416 15.7136 -4.45675
50 1 -6.53216 16.2964 -3.98623
51 1 -5.81267 16.5476 -3.49118
52 1 -5.9886 17.3388 -3.94973
53 1 -5.64033 18.2098 -4.11723
54 1 -5.58221 19.0996 -3.74599
55 1 -6.45215 19.4006 -3.57614
56 1 -6.7622 19.8633 -4.38234
57 1 -7.38748 19.3632 -3.92308
58 1 -8.16338 19.1457 -3.47626
59 1 -8.55917 19.4908 -4.24294
60 1 -9.30498 20.1178 -4.33629
61 1 -10.0994 20.0723 -4.90181
62 1 -10.1601 19.8388 -3.98993
63 1 -10.2809 19.2297 -3.31612
64 1 -10.0359 19.0247 -2.45273
65 1 -9.50591 18.6193 -1.80528
66 1 -9.40979 18.0953 -2.57182
67 1 -9.37211 17.1763 -2.67736
68 1 -9.44381 16.2573 -2.43324
69 1 -9.93515 15.5363 -2.11461
70 1 -9.19288 15.3395 -1.50924
71 1 -8.61808 15.6387 -0.735287
72 1 -7.9891 15.0991 -0.287316
73 1 -7.33704 14.7268 -0.876856
74 1 -7.35439 13.9319 -0.358283
75 1 -8.09988 13.5299 -0.772785
76 1 -7.65423 12.7238 -0.865663
77 1 -7.61946 12.992 0.0181841
78 1 -7.23033 12.9914 0.839239
79 1 -6.79566 12.3407 1.22861
80 1 -5.82609 12.4039 1.15845
81 1 -4.95822 12.4928 1.49755
82 1 -4.40375 11.8635 1.8413
83 1 -3.57776 12.1738 2.22228
84 1 -3.70823 11.2473 2.43994
85 1 -2.96634 11.0797 3.00122
86 1 -2.49285 11.8155 2.71155
87 1 -2.57376 12.4263 1.97028
88 1 -1.76337 12.3909 1.55207
89 1 -1.46482 11.6393 2.03919
90 1 -0.882524 11.0803 1.54671
91 1 -0.636544 10.8696 0.691661
92 1 -1.29493 11.0329 0.0574946
93 1 -1.70917 10.3874 -0.395129
94 1 -2.15191 9.59211 -0.64167
95 1 -2.17427 9.18727 -1.52877
96 1 -2.17264 8.37191 -1.81265
97 1 -2.8444 7.79137 -1.70069
98 1 -2.67222 7.34588 -2.47107
99 1 -2.54817 7.8639 -3.26981
100 1 -3.35505 8.21168 -3.54779
101 1 -3.68586 9.00196 -3.99837
102 1 -2.73221 9.16436 -4.19327
103 1 -2.44324 9.69501 -4.86992
104 1 -1.85674 10.2727 -5.2292
105 1 -1.92932 10.3945 -6.16545
106 1 -2.19465 9.6331 -6.70082
107 1 -1.83273 8.89972 -6.30168
108 1 -1.03163 8.83312 -6.79449
109 1 -1.50685 9.23482 -7.53931
110 1 -1.90872 9.3227 -8.42493
111 1 -2.06947 9.49844 -9.35784
112 1 -1.51499 9.4688 -10.1307
113 1 -0.742891 9.96611 -9.92394
114 1 -0.501369 10.5884 -10.5461
115 1 0.153932 10.6676 -9.78177
116 1 0.231807 10.2937 -8.90195
117 1 0.65681 9.47624 -8.89993
118 1 0.631839 8.55756 -8.90643
119 1 0.962262 8.19452 -9.7217
120 1 1.34915 7.45327 -10.2362
121 1 1.50263 7.19215 -9.34049
122 1 1.3581 6.64425 -8.54136
123 1 1.00705 5.88037 -8.97094
124 1 1.59005 5.51198 -9.61986
125 1 1.10126 4.83944 -10.1438
126 1 0.954003 4.42959 -9.30276
127 1 1.57893 4.35308 -8.62241
128 1 1.42107 4.44549 -7.71835
ITEM: TIMESTEP
1080000
ITEM: NUMBER OF ATOMS
128
ITEM: BOX BOUNDS mm mm mm
-6.4000000000000000e+01 6.4000000000000000e+01
-6.4000000000000000e+01 6.4000000000000000e+01
-6.4000000000000000e+01 6.4000000000000000e+01
ITEM: ATOMS id type x y z
1 1 4.77105 14.2474 -1.003
2 1 4.90995 14.7624 -1.73928
3 1 5.77458 14.8342 -2.09724
4 1 6.00746 14.935 -3.02166
5 1 5.50525 14.5692 -3.71927
6 1 6.01175 14.9298 -4.42753
7 1 5.81287 14.9136 -5.27985
8 1 5.67739 15.806 -4.97094
9 1 6.53813 15.807 -4.59327
10 1 7.17973 16.5252 -4.70213
11 1 6.69461 16.2576 -5.50907
12 1 6.80602 15.45 -5.96321
13 1 7.01561 15.729 -6.8535
14 1 6.06209 15.8154 -6.70393
15 1 5.75964 15.4168 -7.56445
16 1 5.25678 14.6264 -7.81769
17 1 4.79026 15.1958 -8.40654
18 1 4.38657 14.5857 -9.01535
19 1 3.81483 14.5767 -8.23659
20 1 3.13829 13.9488 -8.23419
21 1 2.91309 13.5818 -7.38598
22 1 2.38708 14.1952 -6.8975
23 1 1.91807 14.7181 -7.50732
24 1 1.05578 14.387 -7.79199
25 1 0.248156 14.062 -8.12763
26 1 -0.119592 13.3541 -7.57193
27 1 -0.903199 13.5608 -7.00135
28 1 -0.564058 14.3346 -7.44267
29 1 -1.02389 15.1489 -7.39152
30 1 -1.92465 15.1708 -7.81041
31 1 -1.98899 14.4239 -8.35183
32 1 -2.77317 14.1023 -8.01026
33 1 -3.67915 14.3924 -8.01231
34 1 -3.99969 15.1816 -7.64667
35 1 -3.64085 15.2517 -6.77729
36 1 -2.84057 15.6314 -6.34596
37 1 -2.43961 16.3357 -5.75786
38 1 -3.11614 16.3454 -5.14582
39 1 -3.73535 16.0766 -5.8239
40 1 -4.15411 16.9316 -5.73128
41 1 -4.87557 17.3996 -5.41263
42 1 -5.39893 17.9884 -6.04547
43 1 -5.99306 17.84 -6.74562
44 1 -6.3402 17.6063 -7.60394
45 1 -7.13018 18.0659 -7.86237
46 1 -7.73335 18.6541 -8.17617
47 1 -7.56492 19.5451 -7.75062
48 1 -7.96346 20.2188 -7.21113
49 1 -7.20198 20.2947 -6.67053
50 1 -6.72421 20.778 -5.98733
51 1 -5.89156 20.432 -6.16162
52 1 -5.93506 19.796 -5.44711
53 1 -5.45776 19.386 -4.82662
54 1 -5.44922 19.2733 -3.91211
55 1 -5.35881 20.2003 -4.04843
56 1 -4.83374 20.753 -4.63489
57 1 -4.32354 20.5434 -5.38672
58 1 -3.90217 19.9155 -4.71638
59 1 -4.04102 19.92 -3.8177
60 1 -3.36011 19.2884 -3.56234
61 1 -3.01983 18.8542 -2.72582
62 1 -3.31927 18.7545 -1.85303
63 1 -2.53642 18.8016 -1.34651
64 1 -1.61111 18.7592 -1.60956
65 1 -2.06637 17.8821 -1.59061
66 1 -2.95904 17.5848 -1.70314
67 1 -3.35692 17.4399 -0.886571
68 1 -3.38926 17.5051 0.034912
69 1 -3.41389 16.7948 0.642973
70 1 -4.19707 17.1144 0.474883
71 1 -4.8807 17.1199 1.12942
72 1 -5.07447 16.7165 1.93554
73 1 -4.29177 16.5971 2.41788
74 1 -3.85344 15.9181 1.94269
75 1 -3.16213 15.5084 2.4431
76 1 -2.83808 14.6626 2.41582
77 1 -3.38303 14.2832 3.04571
78 1 -3.59516 13.7672 2.3101
79 1 -3.66856 12.8599 2.55314
80 1 -3.04851 12.1399 2.57827
81 1 -2.1199 12.0536 2.67435
82 1 -1.81741 12.9313 2.96793
83 1 -1.40634 13.6069 2.45471
84 1 -1.20374 12.8431 2.00343
85 1 -1.7398 12.286 1.53619
86 1 -2.42745 11.9362 0.998261
87 1 -2.4168 11.9126 0.06849
88 1 -3.09248 11.655 -0.535069
89 1 -2.68138 11.705 -1.38976
90 1 -2.37869 11.3068 -2.1799
91 1 -3.24724 11.0018 -2.31642
92 1 -4.02272 11.1641 -1.82661
93 1 -4.53715 11.9172 -2.13136
94 1 -4.87841 11.1689 -2.49939
95 1 -4.5273 11.5225 -3.29503
96 1 -4.37337 12.0192 -4.08878
97 1 -5.32561 11.9454 -4.18493
98 1 -5.33023 11.9909 -5.11652
99 1 -5.42507 11.4322 -5.97409
100 1 -5.95915 10.5184 -5.78962
101 1 -5.92478 10.7418 -6.72244
102 1 -6.27374 10.6801 -7.60951
103 1 -5.79591 10.4862 -8.43937
104 1 -4.94379 10.44 -8.06357
105 1 -4.54014 11.1657 -7.59583
106 1 -4.56783 12.0253 -7.94133
107 1 -3.70137 12.4093 -8.26646
108 1 -2.90331 12.0746 -8.62467
109 1 -2.14303 11.598 -8.83381
110 1 -1.53771 11.8912 -8.15785
111 1 -1.70414 12.7172 -8.71716
112 1 -1.05316 12.0763 -9.08926
113 1 -0.16377 11.9338 -8.71636
114 1 -0.517441 11.2983 -8.06449
115 1 -1.06749 10.958 -8.72748
116 1 -0.658739 10.2383 -8.29742
117 1 -0.708088 9.30063 -8.12549
118 1 -0.510724 8.45665 -8.45174
119 1 0.101721 8.78737 -7.80189
120 1 0.969781 8.73625 -8.02198
121 1 1.58294 8.63566 -7.31989
122 1 1.86347 7.88842 -7.81708
123 1 2.00394 7.04788 -7.59047
124 1 2.75205 6.60346 -7.89595
125 1 3.66369 6.94969 -8.03441
126 1 4.4463 7.26882 -7.70487
127 1 4.22668 8.12997 -7.37543
128 1 3.69075 8.77911 -7.83324
ITEM: TIMESTEP
1090000
ITEM: NUMBER OF ATOMS
128
ITEM: BOX BOUNDS mm mm mm
-6.4000000000000000e+01 6.4000000000000000e+01
-6.4000000000000000e+01 6.4000000000000000e+01
-6.4000000000000000e+01 6.4000000000000000e+01
ITEM: ATOMS id type x y z
1 1 10.3705 14.065 -9.94184
2 1 10.7088 14.757 -9.46663
3 1 10.3175 15.4983 -9.79127
4 1 9.51603 15.9163 -10.1057
5 1 8.80978 15.9182 -9.53547
6 1 9.22262 16.618 -9.02214
7 1 9.61433 16.6237 -8.18026
8 1 9.93079 15.8274 -7.73341
9 1 10.1568 15.832 -6.7649
10 1 10.9501 15.3821 -6.64821
11 1 11.297 14.5416 -6.69025
12 1 10.9452 13.8853 -7.2251
13 1 10.469 13.1861 -7.59668
14 1 9.62849 13.394 -7.25076
15 1 9.13596 13.4973 -6.45466
16 1 8.64192 13.2244 -5.74168
17 1 8.02733 12.5756 -6.14062
18 1 7.6871 13.0758 -6.91356
19 1 7.72606 14.0166 -6.9292
20 1 8.15734 13.9647 -7.78989
21 1 8.15492 14.8337 -8.21643
22 1 8.11103 15.6161 -8.73827
23 1 7.71499 16.3587 -8.39534
24 1 7.57702 16.8309 -7.62994
25 1 6.92256 17.4038 -8.06393
26 1 6.7285 17.4418 -9.03172
27 1 6.56064 16.6806 -9.57755
28 1 6.63195 15.7778 -9.67503
29 1 6.2069 15.0091 -9.4088
30 1 5.61789 14.4012 -8.94902
31 1 4.98236 14.8666 -8.41911
32 1 4.16216 14.4932 -8.19337
33 1 3.64516 13.9508 -7.64014
34 1 3.43917 14.0607 -6.71731
35 1 2.50554 14.3099 -6.77757
36 1 1.98358 15.1689 -6.61927
37 1 2.09969 15.351 -7.53356
38 1 1.34235 15.8817 -7.46767
39 1 0.735971 16.5337 -7.61639
40 1 0.430875 15.641 -7.67139
41 1 -0.416671 15.3603 -8.0847
42 1 -1.26025 15.2209 -7.72974
43 1 -1.66283 15.9802 -7.29605
44 1 -2.20929 16.5664 -6.83904
45 1 -2.74509 16.3563 -7.57614
46 1 -2.8008 17.2557 -7.60004
47 1 -2.7054 17.7324 -6.79486
48 1 -2.59457 18.6797 -6.65717
49 1 -1.89511 19.0662 -7.12391
50 1 -1.24865 18.9931 -7.82923
51 1 -0.961825 18.3593 -8.42155
52 1 -0.765844 17.6985 -7.78262
53 1 -1.44677 17.3954 -7.21416
54 1 -1.87421 17.3718 -6.36658
55 1 -1.77637 17.3399 -5.40286
56 1 -2.52121 16.7776 -5.44822
57 1 -3.42981 16.6377 -5.65029
58 1 -4.25653 17.2175 -5.82378
59 1 -4.41408 17.5747 -4.98283
60 1 -4.96623 17.0032 -4.40653
61 1 -5.69562 17.4938 -4.06447
62 1 -6.00425 18.1469 -3.42418
63 1 -5.35838 18.1525 -2.73097
64 1 -5.00163 17.9582 -1.90482
65 1 -5.88343 17.627 -1.82205
66 1 -6.42409 17.0133 -2.20423
67 1 -5.77044 16.372 -2.44698
68 1 -6.49262 15.9467 -2.05368
69 1 -6.02812 16.0202 -1.24423
70 1 -5.5483 15.2289 -1.00349
71 1 -5.51769 15.2819 -0.0606394
72 1 -5.26871 15.2723 0.842869
73 1 -5.3797 14.5875 1.48772
74 1 -5.49308 13.6766 1.79124
75 1 -5.27225 12.7687 2.094
76 1 -5.9773 12.1801 2.3067
77 1 -5.52057 11.5926 1.75838
78 1 -5.46288 11.8892 0.898302
79 1 -4.76282 11.647 0.307601
80 1 -5.28282 11.7263 -0.493132
81 1 -5.96779 12.2936 -0.773805
82 1 -6.64356 12.7826 -1.23525
83 1 -7.56526 12.6116 -1.21997
84 1 -8.21808 11.9958 -0.980362
85 1 -8.79325 11.2801 -1.16204
86 1 -9.52784 10.729 -0.953257
87 1 -9.64509 9.82282 -0.873726
88 1 -9.23007 9.55061 -1.71146
89 1 -8.45936 9.48081 -2.2524
90 1 -8.59068 10.0422 -2.98574
91 1 -8.08764 10.7089 -2.57506
92 1 -7.34899 10.3514 -3.07184
93 1 -6.66694 10.5734 -3.68945
94 1 -6.16085 9.87249 -3.26737
95 1 -5.58863 9.92192 -2.52064
96 1 -4.98737 10.4255 -3.0269
97 1 -4.79235 9.85394 -3.70118
98 1 -4.61555 9.13459 -4.28489
99 1 -4.90117 9.56983 -5.08008
100 1 -4.24174 10.0768 -5.42259
101 1 -3.80059 9.31704 -5.71767
102 1 -2.84132 9.18161 -5.65732
103 1 -2.96124 9.8036 -6.34758
104 1 -2.73721 10.4399 -7.03963
105 1 -1.90653 10.3775 -7.50779
106 1 -2.51892 10.2795 -8.26649
107 1 -1.95123 10.8713 -8.67809
108 1 -1.27645 11.4727 -8.72046
109 1 -0.607064 11.4208 -8.07182
110 1 -0.0773391 10.7083 -8.37456
111 1 0.539844 10.8879 -9.06937
112 1 -0.301492 11.0763 -9.46324
113 1 -0.453079 10.1435 -9.65072
114 1 0.356268 9.79196 -9.23531
115 1 0.830899 9.68135 -8.3287
116 1 1.4435 9.2532 -7.77667
117 1 1.47851 8.62731 -7.09803
118 1 1.18343 7.65192 -7.00041
119 1 1.54533 6.97584 -6.42778
120 1 1.66872 7.3118 -5.55607
121 1 2.45379 7.54305 -5.01633
122 1 2.72116 6.94883 -4.29352
123 1 3.33763 6.24207 -4.29195
124 1 3.92778 5.78557 -4.90785
125 1 4.76619 5.34799 -5.28094
126 1 5.62127 5.67187 -5.46348
127 1 5.9336 4.98028 -4.90817
128 1 5.58084 4.41418 -5.56871
ITEM: TIMESTEP
1100000
ITEM: NUMBER OF ATOMS
128
ITEM: BOX BOUNDS mm mm mm
-6.4000000000000000e+01 6.4000000000000000e+01
-6.4000000000000000e+01 6.4000000000000000e+01
-6.4000000000000000e+01 6.4000000000000000e+01
ITEM: ATOMS id type x y z
1 1 12.3966 12.974 -5.00677
2 1 11.6492 13.4042 -5.2623
3 1 11.8497 14.2853 -4.97365
4 1 11.427 14.7384 -4.25332
5 1 10.8123 14.6322 -3.51916
6 1 9.98379 14.8382 -3.19839
7 1 9.3204 15.2499 -3.68429
8 1 9.83035 15.9586 -4.0779
9 1 10.613 15.4972 -4.15699
10 1 11.1994 15.764 -4.83282
11 1 11.6026 15.7007 -5.69866
12 1 11.4591 14.8557 -6.07856
13 1 11.2792 14.0595 -6.50809
14 1 10.984 13.4629 -7.1529
15 1 11.011 12.7303 -7.69068
16 1 10.8803 12.8607 -8.63549
17 1 10.0796 13.3472 -8.50617
18 1 9.40834 12.8564 -9.01358
19 1 8.97307 12.0564 -9.14844
20 1 8.19793 12.3312 -8.70788
21 1 7.75726 13.1595 -8.99026
22 1 7.47321 13.8146 -8.35773
23 1 6.61738 13.6257 -8.61204
24 1 5.94471 14.2204 -8.32526
25 1 4.99159 14.2888 -8.21103
26 1 4.04965 14.389 -8.34851
27 1 3.94264 13.5544 -7.94555
28 1 3.32683 13.5176 -8.66198
29 1 3.05308 13.3236 -9.58912
30 1 2.339 13.9124 -9.85992
31 1 1.76633 14.0509 -9.13873
32 1 1.50172 13.5446 -8.33758
33 1 0.887432 13.4 -7.67238
34 1 0.474921 12.8886 -7.00805
35 1 -0.237029 13.3602 -6.66489
36 1 -1.01216 12.8291 -6.68571
37 1 -0.544049 12.803 -5.83435
38 1 -0.913452 13.6544 -5.88038
39 1 -1.7673 13.8635 -6.16049
40 1 -2.63644 14.2862 -6.18757
41 1 -2.81 15.2265 -5.97315
42 1 -2.91598 15.7354 -6.79472
43 1 -3.03189 16.0303 -7.67436
44 1 -3.31068 16.8134 -7.21924
45 1 -3.89351 16.9223 -6.47862
46 1 -4.31294 17.1675 -5.61948
47 1 -5.14395 17.5213 -5.68522
48 1 -5.37392 17.4789 -6.60059
49 1 -6.29086 17.7229 -6.50737
50 1 -6.85519 17.3813 -5.84681
51 1 -7.64039 17.227 -5.38115
52 1 -7.95802 17.109 -4.46142
53 1 -8.73711 16.6544 -4.13657
54 1 -8.17791 17.0598 -3.41933
55 1 -8.22392 16.3461 -2.79911
56 1 -7.7165 15.6541 -2.45894
57 1 -6.87781 15.4371 -2.82957
58 1 -6.39111 15.8563 -3.51353
59 1 -6.49204 16.6773 -3.88854
60 1 -6.42863 17.126 -3.00421
61 1 -5.7708 17.8067 -2.99288
62 1 -5.21794 17.3166 -2.42634
63 1 -4.52322 17.4905 -3.01239
64 1 -4.01666 17.2469 -3.69195
65 1 -3.10038 17.2091 -3.44593
66 1 -2.44742 16.6792 -3.02459
67 1 -2.5338 16.2571 -2.16179
68 1 -3.48778 16.4063 -2.04223
69 1 -4.43532 16.4574 -1.89523
70 1 -4.55508 15.5727 -1.69474
71 1 -3.77545 15.1518 -1.82362
72 1 -3.27471 15.706 -1.24912
73 1 -3.05207 14.8128 -1.0868
74 1 -3.72216 14.1997 -1.32968
75 1 -4.40119 13.6152 -1.55608
76 1 -5.17568 13.539 -2.04175
77 1 -5.82969 12.9018 -1.73233
78 1 -6.04744 12.1229 -1.2801
79 1 -6.07189 11.1946 -1.46147
80 1 -5.51741 11.1332 -2.25165
81 1 -4.73786 10.9734 -1.74609
82 1 -4.84568 11.9225 -1.60094
83 1 -4.42171 11.8743 -0.769481
84 1 -5.27564 12.0252 -0.358803
85 1 -5.90757 11.8316 0.333791
86 1 -5.25066 11.2301 0.717736
87 1 -5.00232 10.4462 1.18868
88 1 -5.429 9.55346 1.06725
89 1 -4.63261 9.27309 0.682138
90 1 -4.32399 8.82895 -0.035142
91 1 -3.55062 9.42154 -0.130736
92 1 -3.01065 9.52529 -0.908057
93 1 -2.34265 9.80912 -1.49128
94 1 -1.79096 10.4819 -1.06462
95 1 -0.968253 10.4514 -1.48346
96 1 -0.322726 11.178 -1.5344
97 1 0.0277426 10.7209 -2.30738
98 1 -0.864782 10.487 -2.74734
99 1 -0.895988 9.67973 -2.37914
100 1 -1.11107 8.76077 -2.24282
101 1 -0.686283 7.86456 -2.17928
102 1 -1.066 7.27086 -2.85491
103 1 -0.707352 6.4006 -3.07442
104 1 -0.322289 5.60214 -3.25306
105 1 0.609418 5.57611 -3.27579
106 1 1.53388 5.63398 -3.50388
107 1 2.03425 5.32098 -2.74804
108 1 2.73376 5.62158 -2.12685
109 1 3.40256 6.27224 -2.14931
110 1 3.84987 6.15807 -2.95384
111 1 4.12907 5.56197 -3.67398
112 1 3.63397 5.78551 -4.47091
113 1 2.7978 5.51819 -4.74733
114 1 2.36177 5.69335 -5.62401
115 1 1.47735 5.79948 -5.72336
116 1 1.2993 6.64529 -6.1952
117 1 1.68946 7.23101 -5.52652
118 1 2.57059 7.02688 -5.84579
119 1 3.28537 6.35471 -5.87296
120 1 4.03331 6.80034 -6.2523
121 1 4.61187 6.02514 -6.26489
122 1 5.4135 5.97431 -5.85332
123 1 6.12163 5.37103 -5.63573
124 1 6.25521 5.24408 -6.57976
125 1 6.45765 4.29663 -6.71541
126 1 6.84971 4.29522 -5.875
127 1 6.35164 4.20105 -5.09008
128 1 5.64837 3.58162 -5.02065
ITEM: TIMESTEP
1110000
ITEM: NUMBER OF ATOMS
128
ITEM: BOX BOUNDS mm mm mm
-6.4000000000000000e+01 6.4000000000000000e+01
-6.4000000000000000e+01 6.4000000000000000e+01
-6.4000000000000000e+01 6.4000000000000000e+01
ITEM: ATOMS id type x y z
1 1 11.0562 16.1344 -11.2975
2 1 10.4172 15.7008 -10.7661
3 1 10.18 16.2695 -10.1214
4 1 10.4062 16.1527 -9.159
5 1 9.5157 15.9967 -8.73203
6 1 9.64483 16.7406 -8.1744
7 1 8.78926 16.4856 -7.9057
8 1 9.36575 16.3032 -7.17521
9 1 9.51012 15.4548 -6.89298
10 1 9.76635 14.7258 -7.533
11 1 8.89805 14.8699 -7.84861
12 1 8.14981 14.894 -7.21557
13 1 7.7687 14.7918 -6.27631
14 1 7.9313 14.2101 -5.56713
15 1 8.45858 13.7114 -4.95152
16 1 7.89345 12.9858 -4.85117
17 1 7.11039 13.1168 -4.3637
18 1 6.1827 13.0401 -4.3034
19 1 5.59184 12.4396 -4.70311
20 1 5.13994 13.2095 -4.47727
21 1 4.6637 12.7676 -5.17954
22 1 4.19692 13.1792 -5.83116