print ">>>>>>>>>>>>>>>>>>>>>>>>>>>>>>>>>>>>>>>>>>>>>>>>>>>>>>>>>>>>>>>>>>>>>>>>>>>>>>>N: 128 K: 0.5"
>>>>>>>>>>>>>>>>>>>>>>>>>>>>>>>>>>>>>>>>>>>>>>>>>>>>>>>>>>>>>>>>>>>>>>>>>>>>>>>N: 128 K: 0.5
read_restart restart._N128_k0.5.dat
Reading restart file ...
  restart file = 23 Jun 2022, LAMMPS = 23 Jun 2022
  restoring atom style angle from restart
  orthogonal box = (-64 -64 -64) to (64 64 64)
  1 by 2 by 2 MPI processor grid
  restoring pair style lj/cut from restart
  restoring bond style fene from restart
  restoring angle style cosine from restart
  128 atoms
  127 bonds
  126 angles
Finding 1-2 1-3 1-4 neighbors ...
  special bond factors lj:    0        1        1       
  special bond factors coul:  0        1        1       
     2 = max # of 1-2 neighbors
     6 = max # of special neighbors
  special bonds CPU = 0.000 seconds
  read_restart CPU = 0.001 seconds
# sets up computes needed for continuing a run from a restart file

# dumps and fixes, dumps are already handled in the python file



###

# Set up fixes - as these are not stored in the restart files

###

variable seed equal 315987     # a seed for the thermostat

fix 1 all nve                             # NVE integrator

fix 2 all langevin   1.0 1.0 1.0 ${seed}  # langevin thermostat

fix 2 all langevin   1.0 1.0 1.0 315987  


##### Calculate thermodynamics to write ###################################

variable t equal step

variable mytemp equal temp

variable myepair equal epair

############################################################################



############################################################################

#### Set up a compute for R_g

compute myRG2compute all gyration

#### and write it to a file

variable RG2 equal c_myRG2compute

############################################################################



##### Output thermodynamic info  (temperature, energy, pressure, etc.) #####

thermo 10000

thermo_style   custom   step  temp  epair  emol pe ke etotal  press  vol

############################################################################



###

# modify neighborlist behaviour since this too is not recorded

###

neighbor 1.9 bin

neigh_modify every 1 delay 1 check yes

fix mythermofile all print 10000 "$t ${mytemp} ${myepair}" file thermo_output_N128_k0.5.dat screen no
fix myRG2file all print 10000 "$t ${RG2}" file radius_of_gyration_squared_N128_k0.5.dat screen no
dump dum2 all custom 10000 dump_N128_k0.5.dynamics id type x y z
dump_modify dum2  sort id
run 500000
Generated 0 of 0 mixed pair_coeff terms from geometric mixing rule
Neighbor list info ...
  update every 1 steps, delay 1 steps, check yes
  max neighbors/atom: 2000, page size: 100000
  master list distance cutoff = 3.0224615
  ghost atom cutoff = 3.55
  binsize = 1.5112308, bins = 85 85 85
  1 neighbor lists, perpetual/occasional/extra = 1 0 0
  (1) pair lj/cut, perpetual
      attributes: half, newton on
      pair build: half/bin/newton
      stencil: half/bin/3d
      bin: standard
Per MPI rank memory allocation (min/avg/max) = 7.202 | 7.364 | 7.597 Mbytes
   Step          Temp          E_pair         E_mol          PotEng         KinEng         TotEng         Press          Volume    
   1040000   1.0690014      0.0049480418   31.215858      31.220806      1.5909748      32.81178      -6.7911165e-05  2097152      
   1050000   1.2599952      0.0069118498   31.246736      31.253648      1.8752272      33.128875      3.8658177e-05  2097152      
   1060000   1.0576514      0.004995962    31.39314       31.398136      1.5740827      32.972219      6.546663e-05   2097152      
   1070000   0.97612041     0.038769922    31.349532      31.388302      1.4527417      32.841044      0.00014970531  2097152      
   1080000   0.9265779      0.023842016    31.403185      31.427027      1.3790085      32.806035      1.6257563e-05  2097152      
   1090000   1.006557       0.034703381    31.180039      31.214742      1.4980399      32.712782      1.1494698e-05  2097152      
   1100000   1.0148427      0.0056716265   31.216989      31.22266       1.5103713      32.733032     -3.2984759e-05  2097152      
   1110000   1.0281605      0.041489917    31.438857      31.480347      1.530192       33.010539      0.00012672406  2097152      
   1120000   1.0513049      0.032086708    31.253331      31.285418      1.5646374      32.850055     -6.4712552e-06  2097152      
   1130000   0.97201586     0.010270897    31.240829      31.2511        1.446633       32.697733     -5.3406606e-05  2097152      
   1140000   0.93975332     0.045743321    31.312712      31.358456      1.3986172      32.757073      5.0697636e-06  2097152      
   1150000   1.0375944      0.042584751    31.2634        31.305985      1.5442323      32.850217      2.7695234e-06  2097152      
   1160000   0.9716758      0.004021801    31.201956      31.205978      1.4461269      32.652105      2.3835109e-05  2097152      
   1170000   0.98254349     0.042626701    31.472007      31.514634      1.4623011      32.976935      0.00011886529  2097152      
   1180000   0.98336343     0.00012944326  31.319476      31.319606      1.4635214      32.783127     -1.3751973e-05  2097152      
   1190000   1.0778864      0.0014431041   31.357701      31.359144      1.6041981      32.963342     -2.0960904e-05  2097152      
   1200000   0.86217476     0.0046282829   31.419551      31.42418       1.2831585      32.707338     -6.985369e-05   2097152      
   1210000   1.0454169      0.01562957     31.18703       31.20266       1.5558744      32.758534      1.5091067e-06  2097152      
   1220000   1.0476774      0.013679115    31.38206       31.39574       1.5592386      32.954978      5.4976514e-05  2097152      
   1230000   0.98913647     0.013796283    31.350859      31.364656      1.4721133      32.836769      3.2210831e-06  2097152      
   1240000   1.1385475      0.016677821    31.257885      31.274562      1.6944789      32.969041      0.00011412291  2097152      
   1250000   1.0186657      0.033027953    31.283739      31.316767      1.5160611      32.832828     -6.8938269e-05  2097152      
   1260000   0.92400101     0.036517173    31.342912      31.379429      1.3751734      32.754602     -3.7380767e-05  2097152      
   1270000   0.92581597     0.032278101    31.440936      31.473214      1.3778745      32.851088     -1.7925009e-05  2097152      
   1280000   1.0660153      0.028982615    31.366733      31.395716      1.5865306      32.982247     -4.2969977e-05  2097152      
   1290000   1.0017379      0.014222687    31.353825      31.368048      1.4908677      32.858916      4.7718382e-07  2097152      
   1300000   1.0357934      0.023648907    31.341353      31.365002      1.5415519      32.906554     -4.7295451e-05  2097152      
   1310000   0.95445383     0.0045026237   31.387161      31.391663      1.4204957      32.812159     -3.1789344e-05  2097152      
   1320000   0.95162382     0.011425017    31.415189      31.426614      1.4162839      32.842898      2.5084521e-05  2097152      
   1330000   0.95682323     0.0020303238   31.421009      31.423039      1.4240221      32.847062      8.5671971e-05  2097152      
   1340000   0.96536821     0.017700451    31.251593      31.269293      1.4367394      32.706033     -2.9225188e-05  2097152      
   1350000   1.0451236      0.018229103    31.323889      31.342118      1.5554379      32.897556     -1.1119053e-05  2097152      
   1360000   1.1073408      0.0027820377   31.223481      31.226263      1.6480346      32.874297      4.4744189e-05  2097152      
   1370000   1.0958223      0.0035683742   31.41878       31.422348      1.6308917      33.05324       0.00011523516  2097152      
   1380000   0.85983274     0.0078683959   31.353871      31.361739      1.2796729      32.641412     -5.0036297e-06  2097152      
   1390000   0.95602426     0.003111656    31.284289      31.287401      1.422833       32.710234     -5.1569231e-05  2097152      
   1400000   0.90903742     0.019692301    31.426554      31.446246      1.3529033      32.79915      -5.1090146e-05  2097152      
   1410000   1.0268498      0.006564581    31.275512      31.282077      1.5282413      32.810318     -0.00012688041  2097152      
   1420000   1.1422356      0.0043510408   31.239467      31.243818      1.6999678      32.943786     -5.2248067e-05  2097152      
   1430000   1.076113       0.0058007873   31.330843      31.336644      1.6015588      32.938203      9.1695766e-05  2097152      
   1440000   0.91949387     0.013204683    31.387143      31.400347      1.3684655      32.768813     -6.6044084e-05  2097152      
   1450000   1.1100036      0.029504826    31.255665      31.28517       1.6519975      32.937167     -0.00016803758  2097152      
   1460000   0.92238986     0.020747648    31.300265      31.321013      1.3727755      32.693788     -8.0524891e-06  2097152      
   1470000   1.228526       0.02514342     31.348681      31.373824      1.8283921      33.202217      4.3405537e-05  2097152      
   1480000   1.0331521      0.024451189    31.391648      31.4161        1.537621       32.953721      6.5516377e-05  2097152      
   1490000   1.0320817      0.03141016     31.247311      31.278721      1.5360279      32.814749     -2.0780025e-05  2097152      
   1500000   1.1538086      0.018295479    31.223641      31.241937      1.7171918      32.959129     -5.3884873e-05  2097152      
   1510000   0.9890451      0.017436112    31.348493      31.365929      1.4719773      32.837906     -6.8761293e-05  2097152      
   1520000   0.88590405     0.043523515    31.285691      31.329214      1.3184744      32.647689      3.192518e-05   2097152      
   1530000   0.96054602     0.017351158    31.357856      31.375207      1.4295626      32.804769     -0.00011710327  2097152      
   1540000   0.9958411      0.015193066    31.220583      31.235776      1.4820916      32.717868     -2.3448153e-05  2097152      
Loop time of 14.8642 on 4 procs for 500000 steps with 128 atoms

Performance: 29063180.199 tau/day, 33637.940 timesteps/s
100.0% CPU use with 4 MPI tasks x 1 OpenMP threads

MPI task timing breakdown:
Section |  min time  |  avg time  |  max time  |%varavg| %total
---------------------------------------------------------------
Pair    | 0.030288   | 0.40798    | 1.0999     |  68.6 |  2.74
Bond    | 0.037289   | 0.99574    | 2.8474     | 115.0 |  6.70
Neigh   | 3.6263     | 3.6528     | 3.6717     |   1.0 | 24.57
Comm    | 0.69468    | 2.1394     | 4.7506     | 111.8 | 14.39
Output  | 0.010587   | 0.010846   | 0.010941   |   0.1 |  0.07
Modify  | 0.10819    | 1.1314     | 3.0328     | 112.3 |  7.61
Other   |            | 6.526      |            |       | 43.90

Nlocal:             32 ave          93 max           0 min
Histogram: 2 0 0 1 0 0 0 0 0 1
Nghost:          17.75 ave          36 max           0 min
Histogram: 2 0 0 0 0 0 0 0 0 2
Neighs:         125.75 ave         379 max           0 min
Histogram: 2 0 0 1 0 0 0 0 0 1

Total # of neighbors = 503
Ave neighs/atom = 3.9296875
Ave special neighs/atom = 1.984375
Neighbor list builds = 13869
Dangerous builds = 0
write_restart 	restart._N128_k0.5.dat
System init for write_restart ...
Generated 0 of 0 mixed pair_coeff terms from geometric mixing rule
Total wall time: 0:00:14
