print ">>>>>>>>>>>>>>>>>>>>>>>>>>>>>>>>>>>>>>>>>>>>>>>>>>>>>>>>>>>>>>>>>>>>>>>>>>>>>>>N: 128 K: 0.5"
>>>>>>>>>>>>>>>>>>>>>>>>>>>>>>>>>>>>>>>>>>>>>>>>>>>>>>>>>>>>>>>>>>>>>>>>>>>>>>>N: 128 K: 0.5
read_restart restart._N128_k0.5.dat
Reading restart file ...
  restart file = 23 Jun 2022, LAMMPS = 23 Jun 2022
  restoring atom style angle from restart
  orthogonal box = (-64 -64 -64) to (64 64 64)
  1 by 2 by 2 MPI processor grid
  restoring pair style lj/cut from restart
  restoring bond style fene from restart
  restoring angle style cosine from restart
  128 atoms
  127 bonds
  126 angles
Finding 1-2 1-3 1-4 neighbors ...
  special bond factors lj:    0        1        1       
  special bond factors coul:  0        1        1       
     2 = max # of 1-2 neighbors
     6 = max # of special neighbors
  special bonds CPU = 0.000 seconds
  read_restart CPU = 0.002 seconds
# sets up computes needed for continuing a run from a restart file

# dumps and fixes, dumps are already handled in the python file



###

# Set up fixes - as these are not stored in the restart files

###

variable seed equal 315987     # a seed for the thermostat

fix 1 all nve                             # NVE integrator

fix 2 all langevin   1.0 1.0 1.0 ${seed}  # langevin thermostat

fix 2 all langevin   1.0 1.0 1.0 315987  


##### Calculate thermodynamics to write ###################################

variable t equal step

variable mytemp equal temp

variable myepair equal epair

############################################################################



############################################################################

#### Set up a compute for R_g

compute myRG2compute all gyration

#### and write it to a file

variable RG2 equal c_myRG2compute

############################################################################



##### Output thermodynamic info  (temperature, energy, pressure, etc.) #####

thermo 10000

thermo_style   custom   step  temp  epair  emol pe ke etotal  press  vol

############################################################################

fix mythermofile all print 10000 "$t ${mytemp} ${myepair}" file thermo_output_N128_k0.5.dat screen no
fix myRG2file all print 10000 "$t ${RG2}" file radius_of_gyration_squared_N128_k0.5.dat screen no
dump dum2 all custom 10000 dump_N128_k0.5.dynamics id type x y z
dump_modify dum2  sort id
run 500000
Generated 0 of 0 mixed pair_coeff terms from geometric mixing rule
Neighbor list info ...
  update every 1 steps, delay 10 steps, check yes
  max neighbors/atom: 2000, page size: 100000
  master list distance cutoff = 1.4224615
  ghost atom cutoff = 3.55
  binsize = 0.71123076, bins = 180 180 180
  1 neighbor lists, perpetual/occasional/extra = 1 0 0
  (1) pair lj/cut, perpetual
      attributes: half, newton on
      pair build: half/bin/newton
      stencil: half/bin/3d
      bin: standard
Per MPI rank memory allocation (min/avg/max) = 14.03 | 14.1 | 14.3 Mbytes
   Step          Temp          E_pair         E_mol          PotEng         KinEng         TotEng         Press          Volume    
    540000   0.92900319     0.0061993697   31.263881      31.27008       1.382618       32.652698     -8.9228855e-05  2097152      
    550000   1.0881079      0.017447981    31.413396      31.430844      1.6194106      33.050255      8.9290145e-05  2097152      
    560000   0.99723941     0.0086283495   31.333815      31.342443      1.4841727      32.826616     -5.3842664e-05  2097152      
    570000   1.2292059      0.0084831573   31.25418       31.262663      1.8294042      33.092068      0.00010525299  2097152      
    580000   0.96213617     0.0060421169   31.334378      31.34042       1.4319292      32.772349      4.4315898e-05  2097152      
    590000   1.0312491      0.016000861    31.344162      31.360162      1.5347887      32.894951      7.9969579e-05  2097152      
    600000   0.98534541     0.0158808      31.319469      31.33535       1.4664711      32.801821      2.5976656e-06  2097152      
    610000   0.95530848     0.031556117    31.368426      31.399982      1.4217677      32.821749     -3.7370631e-05  2097152      
    620000   0.94411616     0.0036989514   31.281783      31.285482      1.4051104      32.690592     -9.0372345e-05  2097152      
    630000   0.96817014     0.015513628    31.240286      31.2558        1.4409095      32.696709     -0.00011006808  2097152      
    640000   0.92283256     0.024901314    31.176728      31.20163       1.3734344      32.575064      8.050728e-05   2097152      
    650000   1.1287185      0.01067502     31.322343      31.333018      1.6798505      33.012868      7.2340999e-05  2097152      
    660000   1.0644238      0.020201256    31.293249      31.313451      1.5841619      32.897613      4.7104637e-06  2097152      
    670000   0.90690906     0.006987389    31.372219      31.379207      1.3497357      32.728943     -2.8176024e-05  2097152      
    680000   0.92666757     0.030131791    31.245188      31.27532       1.379142       32.654462      6.4063787e-05  2097152      
    690000   1.0145317      0.053192886    31.466929      31.520122      1.5099085      33.03003      -2.035841e-05   2097152      
    700000   0.86349105     0.010125822    31.365046      31.375172      1.2851175      32.660289     -8.3755366e-06  2097152      
    710000   0.92488851     0.0089620816   31.237164      31.246126      1.3764942      32.62262      -1.0084831e-05  2097152      
    720000   0.99445011     0.0024274328   31.272852      31.27528       1.4800215      32.755301     -7.3113536e-05  2097152      
    730000   0.96332978     0.0079771171   31.398389      31.406367      1.4337057      32.840072     -1.5326741e-05  2097152      
    740000   1.0355878      0.024731524    31.190524      31.215255      1.5412459      32.756501      0.0001415436   2097152      
    750000   0.92772985     0.016150995    31.232466      31.248617      1.3807229      32.62934      -1.0516708e-05  2097152      
    760000   1.0327656      0.0091103343   31.202996      31.212106      1.5370456      32.749152      7.7808363e-06  2097152      
    770000   1.023135       0.011231855    31.250861      31.262093      1.5227127      32.784805      3.549906e-05   2097152      
    780000   1.0036723      0.0042962988   31.224589      31.228885      1.4937467      32.722631     -2.9635192e-05  2097152      
    790000   1.0066416      0.0036236027   31.383531      31.387155      1.4981659      32.88532      -5.8773861e-05  2097152      
    800000   0.99648267     0.039654135    31.260662      31.300316      1.4830465      32.783362      0.00013463216  2097152      
    810000   1.0132514      0.0078774042   31.202433      31.21031       1.508003       32.718313     -0.0001352796   2097152      
    820000   0.90478152     0.0086545289   31.251095      31.25975       1.3465694      32.606319     -1.5026591e-06  2097152      
    830000   1.0870867      0.015383147    31.260053      31.275436      1.6178908      32.893327      6.9697525e-05  2097152      
    840000   1.0275865      0.062144602    31.263103      31.325248      1.5293376      32.854585      3.0571677e-05  2097152      
    850000   0.89823898     0.02444444     31.415531      31.439975      1.3368322      32.776808     -2.1064851e-05  2097152      
    860000   0.9830362      0.036398695    31.373905      31.410304      1.4630343      32.873338     -1.8032211e-05  2097152      
    870000   0.99319919     0.013765298    31.250907      31.264672      1.4781597      32.742832      1.3459563e-05  2097152      
    880000   0.98496583     0.016639062    31.32357       31.340209      1.4659062      32.806115      8.6638583e-05  2097152      
    890000   1.0018978      0.041917577    31.353915      31.395832      1.4911057      32.886938      8.9722739e-06  2097152      
    900000   1.0160281      0.012913315    31.315848      31.328761      1.5121355      32.840896     -3.2720484e-06  2097152      
    910000   1.156626       0.0070201864   31.395322      31.402343      1.7213848      33.123727      1.2924915e-05  2097152      
    920000   1.1209541      0.0023457283   31.3494        31.351746      1.6682949      33.02004       1.4696428e-05  2097152      
    930000   0.93347288     0.0034047035   31.322634      31.326038      1.3892702      32.715309     -5.8675666e-05  2097152      
    940000   0.92139537     0.01409359     31.346036      31.360129      1.3712955      32.731425     -9.7489045e-05  2097152      
    950000   0.99362264     0.008215169    31.253471      31.261686      1.4787899      32.740476     -6.2928771e-05  2097152      
    960000   0.88958257     0.010369989    31.175362      31.185732      1.3239491      32.509681     -7.5877632e-05  2097152      
    970000   0.98182592     0.010172638    31.323305      31.333478      1.4612331      32.794711     -5.2876483e-05  2097152      
    980000   1.0094959      0.012137872    31.38328       31.395418      1.5024138      32.897831     -3.8945806e-05  2097152      
    990000   1.0825463      0.014816968    31.376406      31.391223      1.6111334      33.002356      5.2446851e-05  2097152      
   1000000   0.97646545     0.013348981    31.20361       31.216959      1.4532552      32.670214      4.9322291e-05  2097152      
   1010000   0.98697569     0.012652909    31.202757      31.215409      1.4688974      32.684307      2.7007807e-05  2097152      
   1020000   1.0969833      0.023004402    31.448647      31.471651      1.6326196      33.104271     -7.7277152e-07  2097152      
   1030000   0.90362499     0.0098982584   31.318489      31.328388      1.3448481      32.673236      2.6428173e-05  2097152      
   1040000   1.0690014      0.0049480418   31.215858      31.220806      1.5909748      32.81178      -6.7911165e-05  2097152      
Loop time of 144.064 on 4 procs for 500000 steps with 128 atoms

Performance: 2998663.774 tau/day, 3470.676 timesteps/s
100.0% CPU use with 4 MPI tasks x 1 OpenMP threads

MPI task timing breakdown:
Section |  min time  |  avg time  |  max time  |%varavg| %total
---------------------------------------------------------------
Pair    | 0.0534     | 0.19971    | 0.42855    |  34.9 |  0.14
Bond    | 0.11307    | 0.97296    | 2.3398     |  93.6 |  0.68
Neigh   | 132.62     | 132.71     | 132.78     |   0.6 | 92.12
Comm    | 5.1556     | 6.6514     | 7.4342     |  34.2 |  4.62
Output  | 0.039197   | 0.039386   | 0.039466   |   0.1 |  0.03
Modify  | 0.22826    | 1.1893     | 2.6746     |  93.8 |  0.83
Other   |            | 2.299      |            |       |  1.60

Nlocal:             32 ave          81 max           0 min
Histogram: 2 0 0 0 0 1 0 0 0 1
Nghost:             25 ave          47 max          11 min
Histogram: 2 0 0 0 1 0 0 0 0 1
Neighs:          11.75 ave          31 max           0 min
Histogram: 2 0 0 0 1 0 0 0 0 1

Total # of neighbors = 47
Ave neighs/atom = 0.3671875
Ave special neighs/atom = 1.984375
Neighbor list builds = 50000
Dangerous builds = 50000
write_restart 	restart._N128_k0.5.dat
System init for write_restart ...
Generated 0 of 0 mixed pair_coeff terms from geometric mixing rule
Total wall time: 0:02:24
