print ">>>>>>>>>>>>>>>>>>>>>>>>>>>>>>>>>>>>>>>>>>>>>>>>>>>>>>>>>>>>>>>>>>>>>>>>>>>>>>>N: 128 K: 0.5"
>>>>>>>>>>>>>>>>>>>>>>>>>>>>>>>>>>>>>>>>>>>>>>>>>>>>>>>>>>>>>>>>>>>>>>>>>>>>>>>N: 128 K: 0.5
read_restart restart._N128_k0.5.dat
Reading restart file ...
  restart file = 23 Jun 2022, LAMMPS = 23 Jun 2022
  restoring atom style angle from restart
  orthogonal box = (-64 -64 -64) to (64 64 64)
  1 by 2 by 2 MPI processor grid
  restoring pair style lj/cut from restart
  restoring bond style fene from restart
  restoring angle style cosine from restart
  128 atoms
  127 bonds
  126 angles
Finding 1-2 1-3 1-4 neighbors ...
  special bond factors lj:    0        1        1       
  special bond factors coul:  0        1        1       
     2 = max # of 1-2 neighbors
     6 = max # of special neighbors
  special bonds CPU = 0.000 seconds
  read_restart CPU = 0.002 seconds
# sets up computes needed for continuing a run from a restart file

# dumps and fixes, dumps are already handled in the python file



###

# Set up fixes - as these are not stored in the restart files

###

variable seed equal 315987     # a seed for the thermostat

fix 1 all nve                             # NVE integrator

fix 2 all langevin   1.0 1.0 1.0 ${seed}  # langevin thermostat

fix 2 all langevin   1.0 1.0 1.0 315987  


##### Calculate thermodynamics to write ###################################

variable t equal step

variable mytemp equal temp

variable myepair equal epair

############################################################################



############################################################################

#### Set up a compute for R_g

compute myRG2compute all gyration

#### and write it to a file

variable RG2 equal c_myRG2compute

############################################################################



##### Output thermodynamic info  (temperature, energy, pressure, etc.) #####

thermo 10000

thermo_style   custom   step  temp  epair  emol pe ke etotal  press  vol

############################################################################



###

# modify neighborlist behaviour since this too is not recorded

###

neighbor 1.9 bin

neigh_modify every 1 delay 1 check yes

fix mythermofile all print 10000 "$t ${mytemp} ${myepair}" file thermo_output_N128_k0.5.dat screen no
fix myRG2file all print 10000 "$t ${RG2}" file radius_of_gyration_squared_N128_k0.5.dat screen no
dump dum2 all custom 10000 dump_N128_k0.5.dynamics id type x y z
dump_modify dum2  sort id
run 1500000
Generated 0 of 0 mixed pair_coeff terms from geometric mixing rule
Neighbor list info ...
  update every 1 steps, delay 1 steps, check yes
  max neighbors/atom: 2000, page size: 100000
  master list distance cutoff = 3.0224615
  ghost atom cutoff = 3.55
  binsize = 1.5112308, bins = 85 85 85
  1 neighbor lists, perpetual/occasional/extra = 1 0 0
  (1) pair lj/cut, perpetual
      attributes: half, newton on
      pair build: half/bin/newton
      stencil: half/bin/3d
      bin: standard
Per MPI rank memory allocation (min/avg/max) = 7.199 | 7.331 | 7.597 Mbytes
   Step          Temp          E_pair         E_mol          PotEng         KinEng         TotEng         Press          Volume    
   1540000   0.9958411      0.015193066    31.220583      31.235776      1.4820916      32.717868     -2.3448153e-05  2097152      
   1550000   1.1896167      0.020179164    31.222271      31.242451      1.7704842      33.012935      0.000105812    2097152      
   1560000   0.99850111     0.03860867     31.34998       31.388589      1.4860505      32.874639     -2.4506016e-05  2097152      
   1570000   1.0548903      0.01679572     31.386734      31.40353       1.5699735      32.973503     -7.0646138e-05  2097152      
   1580000   1.0209519      0.022187805    31.395691      31.417879      1.5194635      32.937342      2.2332581e-05  2097152      
   1590000   0.98623344     0.020197825    31.250273      31.270471      1.4677927      32.738263     -0.00010214172  2097152      
   1600000   1.0380603      0.011251042    31.284517      31.295768      1.5449257      32.840694      3.1747916e-06  2097152      
   1610000   0.97129288     0.013120798    31.387424      31.400545      1.445557       32.846102     -5.3997581e-05  2097152      
   1620000   0.96350108     0.038366529    31.296548      31.334914      1.4339606      32.768875      4.6236917e-05  2097152      
   1630000   0.89483066     0.012747987    31.385715      31.398463      1.3317597      32.730222     -7.5288624e-05  2097152      
   1640000   0.97060039     0.014808169    31.404683      31.419491      1.4445264      32.864017      1.1978315e-05  2097152      
   1650000   0.88844512     0.01336559     31.279365      31.292731      1.3222562      32.614987     -4.4187723e-05  2097152      
   1660000   0.89029511     0.017944837    31.282686      31.300631      1.3250095      32.62564      -4.4627631e-05  2097152      
   1670000   0.9029974      0.021611533    31.317004      31.338616      1.3439141      32.68253      -7.7848284e-06  2097152      
   1680000   0.92101889     0.0063864925   31.312458      31.318844      1.3707351      32.689579      0.00015986509  2097152      
   1690000   1.0300058      0.012876617    31.295635      31.308512      1.5329384      32.84145       5.9253243e-05  2097152      
   1700000   1.1192426      0.012666563    31.238229      31.250895      1.6657478      32.916643     -0.00011775445  2097152      
   1710000   1.2025167      0.005484902    31.376917      31.382402      1.7896831      33.172085     -4.8739573e-05  2097152      
   1720000   1.0848386      0.046549223    31.298797      31.345346      1.6145449      32.959891     -9.8140441e-07  2097152      
   1730000   0.87115369     0.015337754    31.282136      31.297474      1.2965217      32.593996     -4.3269349e-05  2097152      
   1740000   0.96101584     0.015808283    31.281043      31.296852      1.4302619      32.727113      1.0346334e-05  2097152      
   1750000   1.0144219      0.0054453637   31.256045      31.261491      1.5097452      32.771236      7.6768374e-05  2097152      
   1760000   0.91144587     0.0044313964   31.340881      31.345312      1.3564878      32.7018        9.8980588e-06  2097152      
   1770000   1.0116418      0.033028859    31.290859      31.323887      1.5056076      32.829495     -0.00012173069  2097152      
   1780000   1.0459262      0.012934568    31.389169      31.402103      1.5566324      32.958736      3.8649179e-05  2097152      
   1790000   0.88182802     0.013188401    31.322676      31.335865      1.3124081      32.648273     -5.9609759e-05  2097152      
   1800000   0.93006808     0.0090942078   31.258925      31.268019      1.3842029      32.652222     -1.9681953e-05  2097152      
   1810000   1.0099441      0.021800016    31.151639      31.173439      1.5030809      32.67652      -8.9683054e-05  2097152      
   1820000   1.1010928      0.015857377    31.249534      31.265391      1.6387357      32.904127      9.1581515e-05  2097152      
   1830000   0.94613127     0.028243569    31.258525      31.286769      1.4081094      32.694878      5.1048848e-05  2097152      
   1840000   0.85433213     0.042799939    31.429612      31.472412      1.2714865      32.743898     -2.7151016e-05  2097152      
   1850000   1.0507062      0.00031676179  31.322994      31.323311      1.5637464      32.887057     -3.1239103e-05  2097152      
   1860000   0.92999066     0.0088776331   31.378463      31.387341      1.3840877      32.771428      3.9339016e-05  2097152      
   1870000   0.92960671     0.0066562849   31.271313      31.277969      1.3835162      32.661486      3.3701982e-05  2097152      
   1880000   0.97048325     0.016534044    31.294793      31.311327      1.444352       32.755679      3.809799e-05   2097152      
   1890000   1.0605         0.0037012859   31.313493      31.317195      1.5783222      32.895517      5.8468725e-05  2097152      
   1900000   0.96323242     0.018979873    31.326381      31.345361      1.4335608      32.778921     -9.400868e-05   2097152      
   1910000   1.0136569      0.0029490165   31.258084      31.261033      1.5086066      32.76964      -3.3050173e-05  2097152      
   1920000   0.93165891     0.018209086    31.29699       31.315199      1.3865705      32.701769     -7.1398635e-05  2097152      
   1930000   0.9895029      0.037816036    31.460428      31.498244      1.4726586      32.970902      3.8814787e-05  2097152      
   1940000   0.96221717     0.021007235    31.373417      31.394425      1.4320498      32.826474     -5.8364095e-05  2097152      
   1950000   1.1011082      0.011771612    31.191965      31.203736      1.6387587      32.842495      6.7342431e-05  2097152      
   1960000   1.0921408      0.0065934565   31.366102      31.372696      1.6254127      32.998108     -8.2309915e-06  2097152      
   1970000   0.97654682     0.035335241    31.437099      31.472434      1.4533763      32.925811     -6.5818802e-06  2097152      
   1980000   1.1317526      0.022694688    31.338051      31.360746      1.6843661      33.045112      7.9471884e-05  2097152      
   1990000   0.89087018     0.0075168773   31.273727      31.281244      1.3258654      32.607109     -0.00013372298  2097152      
   2000000   0.98957223     0.0093691511   31.37371       31.383079      1.4727618      32.855841     -1.2691443e-05  2097152      
   2010000   0.94344115     0.012101766    31.279903      31.292005      1.4041058      32.696111      6.1724736e-06  2097152      
   2020000   1.0748391      0.018516611    31.34435       31.362867      1.5996629      32.96253       8.1779271e-06  2097152      
   2030000   0.93241788     0.0054725561   31.241515      31.246988      1.3877         32.634688     -4.9632638e-05  2097152      
   2040000   0.99469123     0.010265353    31.281011      31.291276      1.4803803      32.771656     -6.1057348e-07  2097152      
   2050000   0.88005204     0.0306438      31.315088      31.345732      1.3097649      32.655497     -6.3077487e-05  2097152      
   2060000   0.97847045     0.032934528    31.275017      31.307951      1.4562392      32.76419       2.9328086e-05  2097152      
   2070000   1.0495471      0.037727801    31.271333      31.30906       1.5620213      32.871082     -2.5004312e-05  2097152      
   2080000   1.01615        0.030110389    31.284011      31.314121      1.512317       32.826438     -1.3278738e-05  2097152      
   2090000   1.0334141      0.048173308    31.290718      31.338891      1.5380108      32.876902      3.7658892e-05  2097152      
   2100000   1.0172526      0.014433138    31.333389      31.347823      1.5139579      32.86178      -3.2056916e-05  2097152      
   2110000   1.0913592      0.0081634348   31.234425      31.242589      1.6242495      32.866838     -1.5749855e-05  2097152      
   2120000   0.95619597     0.0061059575   31.301691      31.307797      1.4230885      32.730885     -3.8741253e-05  2097152      
   2130000   0.97893122     0.031264354    31.357605      31.388869      1.456925       32.845794     -3.8622104e-05  2097152      
   2140000   0.98949036     0.024338295    31.286277      31.310615      1.47264        32.783255      0.00017320097  2097152      
   2150000   0.99250834     0.039285187    31.374031      31.413316      1.4771315      32.890448     -2.5671634e-05  2097152      
   2160000   1.0849584      0.045433974    31.271427      31.316861      1.6147232      32.931585      7.7389639e-05  2097152      
   2170000   1.0177836      0.0094512044   31.347507      31.356958      1.5147482      32.871706      0.00014099577  2097152      
   2180000   1.0164548      0.041587124    31.228546      31.270133      1.5127706      32.782904      8.7142763e-06  2097152      
   2190000   0.96037094     0.03021034     31.397304      31.427515      1.4293021      32.856817     -8.1630726e-05  2097152      
   2200000   0.91081524     0.012659172    31.350463      31.363122      1.3555492      32.718672     -0.00012850305  2097152      
   2210000   0.97325766     0.02319812     31.364272      31.387471      1.4484811      32.835952     -5.108825e-05   2097152      
   2220000   0.9935015      0.022592513    31.325989      31.348581      1.4786096      32.827191     -2.230298e-05   2097152      
   2230000   1.0377269      0.022978797    31.274906      31.297885      1.5444294      32.842314     -2.4858841e-05  2097152      
   2240000   0.87138478     0.085144898    31.304367      31.389512      1.2968656      32.686378      8.8151854e-05  2097152      
   2250000   0.92339978     0.019571697    31.264313      31.283885      1.3742786      32.658163      1.8873797e-05  2097152      
   2260000   1.0749859      0.02103861     31.405884      31.426923      1.5998814      33.026804      3.2851197e-05  2097152      
   2270000   1.0308467      0.050853       31.414282      31.465135      1.5341898      32.999324      1.1482583e-06  2097152      
   2280000   0.95281755     0.0099721412   31.379831      31.389804      1.4180605      32.807864      3.9636593e-05  2097152      
   2290000   1.100639       0.011757403    31.332358      31.344115      1.6380604      32.982175     -4.9833483e-05  2097152      
   2300000   1.0840492      0.01777754     31.199339      31.217116      1.6133701      32.830486      1.2020239e-05  2097152      
   2310000   1.0530764      0.024512773    31.3844        31.408913      1.5672739      32.976187     -7.7023767e-05  2097152      
   2320000   1.0904991      0.017385391    31.379706      31.397091      1.6229693      33.020061     -3.6409064e-05  2097152      
   2330000   1.0623758      0.016165562    31.316345      31.332511      1.5811139      32.913625      6.1066609e-06  2097152      
   2340000   0.9404642      0.01950104     31.255388      31.274889      1.3996752      32.674565      5.9565639e-06  2097152      
   2350000   1.0423373      0.012696281    31.326972      31.339668      1.5512911      32.890959     -8.4083728e-07  2097152      
   2360000   0.92903976     0.030285948    31.437223      31.467509      1.3826724      32.850182      2.3769621e-05  2097152      
   2370000   0.97669358     0.018545387    31.20432       31.222865      1.4535947      32.67646      -3.2619767e-05  2097152      
   2380000   1.0663562      0.034188902    31.348983      31.383171      1.587038       32.970209      3.0146992e-05  2097152      
   2390000   0.97280835     0.0032192759   31.24412       31.247339      1.4478124      32.695151      0.00010921942  2097152      
   2400000   1.1069985      0              31.222196      31.222196      1.6475252      32.869721      2.1294767e-05  2097152      
   2410000   1.127522       0.023487264    31.18603       31.209517      1.6780698      32.887587     -8.953239e-06   2097152      
   2420000   1.0128738      0.018482191    31.290501      31.308983      1.5074411      32.816424     -1.8317761e-05  2097152      
   2430000   1.1265609      2.9826269e-08  31.229804      31.229804      1.6766395      32.906444      3.3894597e-05  2097152      
   2440000   0.89505622     0.0058566105   31.298206      31.304063      1.3320954      32.636158     -4.3042652e-05  2097152      
   2450000   0.93526681     0.018904453    31.310914      31.329819      1.3919401      32.721759     -4.9290381e-05  2097152      
   2460000   1.06578        0.015324892    31.367804      31.383129      1.5861803      32.969309     -2.4880927e-05  2097152      
   2470000   1.0795957      0.012980023    31.313985      31.326965      1.6067421      32.933707     -1.4021241e-06  2097152      
   2480000   1.0321013      0.021088904    31.35002       31.371109      1.536057       32.907166     -7.0837833e-05  2097152      
   2490000   1.0198387      0.032389545    31.389181      31.421571      1.5178068      32.939378     -0.00010811335  2097152      
   2500000   0.98589004     0.016149566    31.351011      31.367161      1.4672817      32.834443      1.9995102e-05  2097152      
   2510000   1.0759824      0.028620365    31.313519      31.342139      1.6013644      32.943504      0.00016343693  2097152      
   2520000   0.97666664     0.047115938    31.300381      31.347497      1.4535547      32.801052      0.0001249842   2097152      
   2530000   0.94067116     0.026257712    31.294988      31.321246      1.3999832      32.721229     -4.5033266e-05  2097152      
   2540000   1.0809515      0.0324768      31.278437      31.310914      1.6087599      32.919674     -1.4298626e-05  2097152      
   2550000   1.0664204      0.0094734422   31.384566      31.39404       1.5871335      32.981173     -1.6876588e-05  2097152      
   2560000   1.0498871      0.003444094    31.195338      31.198782      1.5625273      32.76131       9.1916093e-06  2097152      
   2570000   0.98575866     0.0054919255   31.313968      31.31946       1.4670861      32.786546      4.2239264e-05  2097152      
   2580000   0.93798349     0.010021663    31.327366      31.337388      1.3959832      32.733371     -5.3166519e-05  2097152      
   2590000   0.9691309      0.019334325    31.344825      31.36416       1.4423393      32.806499      8.9360708e-05  2097152      
   2600000   1.0668724      0.0054033045   31.131291      31.136695      1.5878062      32.724501     -7.5794989e-06  2097152      
   2610000   0.96221537     0.025046736    31.227591      31.252638      1.4320471      32.684685     -9.1657053e-05  2097152      
   2620000   0.94966186     0.013613709    31.343087      31.356701      1.4133639      32.770065     -2.1335597e-05  2097152      
   2630000   1.0203216      0.015051236    31.310045      31.325096      1.5185255      32.843621     -0.00011895959  2097152      
   2640000   1.0193466      0.014158029    31.234838      31.248996      1.5170744      32.766071     -9.5966166e-05  2097152      
   2650000   0.90101799     0.016776992    31.299353      31.31613       1.3409682      32.657098     -5.0473776e-08  2097152      
   2660000   1.136396       0.0099933044   31.258627      31.26862       1.6912769      32.959897     -9.5473275e-06  2097152      
   2670000   1.0843064      0.021542959    31.298009      31.319552      1.6137529      32.933305      2.0028326e-05  2097152      
   2680000   1.0540177      0.0055742961   31.283164      31.288738      1.5686748      32.857413      4.6695757e-05  2097152      
   2690000   1.0285694      0.031851192    31.377869      31.40972       1.5308006      32.940521     -4.0624117e-05  2097152      
   2700000   1.1275872      0.0085091512   31.382444      31.390953      1.6781669      33.06912      -2.2472858e-06  2097152      
   2710000   1.0544706      0.01835898     31.235424      31.253783      1.5693488      32.823131      3.5273406e-05  2097152      
   2720000   0.90938732     0.029725931    31.274209      31.303935      1.3534241      32.657359      7.558933e-05   2097152      
   2730000   1.0313205      0.01222551     31.400188      31.412413      1.534895       32.947308      3.8505929e-06  2097152      
   2740000   0.96643358     0.0078786154   31.19351       31.201389      1.438325       32.639714     -8.1742484e-05  2097152      
   2750000   0.94933294     0.015034546    31.212004      31.227039      1.4128744      32.639913     -0.00011717888  2097152      
   2760000   1.033819       0.0047965394   31.379026      31.383823      1.5386134      32.922436     -6.1865109e-05  2097152      
   2770000   0.99517549     0.0071181616   31.197002      31.20412       1.481101       32.685221      4.275277e-05   2097152      
   2780000   0.99583401     0.012420168    31.441432      31.453852      1.4820811      32.935933      2.6288502e-06  2097152      
   2790000   0.94347139     0.0062023699   31.319138      31.32534       1.4041508      32.729491      4.7657133e-05  2097152      
   2800000   1.0256363      0.024086019    31.230761      31.254847      1.5264352      32.781282     -4.3673341e-05  2097152      
   2810000   0.9856022      0.013774405    31.287579      31.301354      1.4668533      32.768207      3.0299579e-05  2097152      
   2820000   0.9726041      0.0033063927   31.136057      31.139363      1.4475084      32.586872      1.9083392e-05  2097152      
   2830000   1.0565978      0.041600696    31.338677      31.380277      1.5725146      32.952792     -2.6537382e-05  2097152      
   2840000   1.1521739      0.015623014    31.225235      31.240858      1.7147588      32.955617      1.6946297e-05  2097152      
   2850000   0.98876        0.0050370842   31.308437      31.313474      1.471553       32.785027      7.2847425e-05  2097152      
   2860000   0.9098442      0.0030210415   31.268443      31.271464      1.3541041      32.625568     -2.1019532e-06  2097152      
   2870000   1.0861317      0.031277431    31.266642      31.297919      1.6164695      32.914389     -9.304448e-08   2097152      
   2880000   1.0981599      0.013694796    31.464851      31.478546      1.6343707      33.112916     -1.1244475e-05  2097152      
   2890000   0.98252209     0.070864257    31.319877      31.390741      1.4622692      32.853011      1.8828451e-05  2097152      
   2900000   1.1083732      0.01061687     31.311502      31.322119      1.6495711      32.97169       6.7684916e-05  2097152      
   2910000   1.0254931      0.022573798    31.288827      31.311401      1.5262222      32.837623      8.7479415e-05  2097152      
   2920000   0.95290871     0.018393103    31.407445      31.425838      1.4181962      32.844034     -7.4204592e-05  2097152      
   2930000   1.1041871      0.0036887657   31.236664      31.240353      1.643341       32.883694      3.1195641e-05  2097152      
   2940000   0.81851024     0.032037333    31.294136      31.326174      1.2181734      32.544347     -2.2872649e-05  2097152      
   2950000   1.0047051      0.016466203    31.217692      31.234158      1.4952838      32.729442      0.0001100274   2097152      
   2960000   1.0364085      0.0086449096   31.413581      31.422226      1.5424673      32.964693     -7.6681945e-05  2097152      
   2970000   1.0200656      0.022326434    31.449865      31.472191      1.5181445      32.990336     -8.7826324e-05  2097152      
   2980000   0.9956691      0.021651098    31.234372      31.256023      1.4818357      32.737859      3.2899557e-06  2097152      
   2990000   1.0521455      0.018723342    31.282212      31.300936      1.5658884      32.866824      2.8475e-05     2097152      
   3000000   1.1082049      0.011276269    31.302273      31.313549      1.6493205      32.96287       4.9131142e-05  2097152      
   3010000   1.0357196      0.028350232    31.388853      31.417203      1.5414421      32.958645     -6.8625206e-05  2097152      
   3020000   0.96003296     0.0090291133   31.370527      31.379556      1.4287991      32.808355     -3.6947913e-05  2097152      
   3030000   1.04447        0.0091155966   31.296858      31.305974      1.5544651      32.860439      1.6217146e-05  2097152      
   3040000   0.91889985     0.0045407186   31.226048      31.230589      1.3675814      32.59817      -4.8452238e-05  2097152      
Loop time of 41.627 on 4 procs for 1500000 steps with 128 atoms

Performance: 31133610.251 tau/day, 36034.271 timesteps/s
100.0% CPU use with 4 MPI tasks x 1 OpenMP threads

MPI task timing breakdown:
Section |  min time  |  avg time  |  max time  |%varavg| %total
---------------------------------------------------------------
Pair    | 0.085275   | 1.1407     | 3.0678     | 114.0 |  2.74
Bond    | 0.096064   | 2.7734     | 7.8808     | 191.0 |  6.66
Neigh   | 10.362     | 10.42      | 10.47      |   1.5 | 25.03
Comm    | 1.3143     | 4.2986     | 8.4224     | 147.5 | 10.33
Output  | 0.041256   | 0.046897   | 0.048956   |   1.5 |  0.11
Modify  | 0.29772    | 3.4273     | 9.405      | 200.9 |  8.23
Other   |            | 19.52      |            |       | 46.89

Nlocal:             32 ave          81 max           0 min
Histogram: 2 0 0 0 0 1 0 0 0 1
Nghost:              7 ave          15 max           0 min
Histogram: 2 0 0 0 0 0 0 0 1 1
Neighs:            139 ave         400 max           0 min
Histogram: 2 0 0 1 0 0 0 0 0 1

Total # of neighbors = 556
Ave neighs/atom = 4.34375
Ave special neighs/atom = 1.984375
Neighbor list builds = 41653
Dangerous builds = 0
write_restart 	restart._N128_k0.5.dat
System init for write_restart ...
Generated 0 of 0 mixed pair_coeff terms from geometric mixing rule
Total wall time: 0:00:41
