ITEM: TIMESTEP
1680000
ITEM: NUMBER OF ATOMS
64
ITEM: BOX BOUNDS mm mm mm
-3.2000000000000000e+01 3.2000000000000000e+01
-3.2000000000000000e+01 6.0782510589177754e+01
-3.2000000000000000e+01 3.2000000000000000e+01
ITEM: ATOMS id type x y z
1 1 12.789 51.3476 -10.2523
2 1 12.1517 51.9278 -9.88644
3 1 11.5554 51.5668 -9.21735
4 1 11.0068 51.974 -8.58108
5 1 10.6507 52.8234 -8.69376
6 1 10.6455 53.6557 -8.30312
7 1 10.6838 53.6586 -7.3375
8 1 9.73014 53.7625 -7.52037
9 1 9.33599 54.4684 -7.0305
10 1 9.16792 54.5985 -7.9284
11 1 8.60619 55.3504 -8.13182
12 1 8.42161 55.7381 -8.93541
13 1 9.33755 55.5492 -9.02529
14 1 9.26712 56.4814 -8.89713
15 1 8.85472 57.3682 -8.90567
16 1 9.1733 58.0189 -8.32618
17 1 9.05771 57.1152 -7.97604
18 1 9.69612 57.1724 -7.22961
19 1 9.83664 56.283 -7.03566
20 1 10.0153 56.8516 -6.30636
21 1 10.3121 57.7368 -6.26544
22 1 10.3704 58.6417 -6.75961
23 1 11.0151 57.9818 -7.00982
24 1 11.8823 58.378 -6.76987
25 1 12.4397 58.796 -7.42265
26 1 12.2721 59.2235 -8.22245
27 1 12.6307 58.3784 -8.35914
28 1 13.1822 58.9331 -8.90364
29 1 13.8863 58.3184 -8.91363
30 1 13.5775 57.4384 -8.94069
31 1 14.0547 57.6981 -8.16573
32 1 14.3054 58.458 -7.65198
33 1 14.703 59.3538 -7.61196
34 1 15.2796 59.9974 -7.30301
35 1 15.8405 60.7732 -7.57884
36 1 16.7135 60.5289 -7.27227
37 1 17.4966 60.4374 -7.78331
38 1 17.8886 60.2722 -8.64231
39 1 18.5574 59.9716 -8.05388
40 1 19.0097 60.15 -8.86926
41 1 18.8998 59.569 -9.59882
42 1 19.6904 59.0341 -9.65292
43 1 20.2781 59.6895 -10.0459
44 1 21.0889 59.339 -10.1887
45 1 20.6246 58.5864 -9.993
46 1 20.5843 57.7068 -9.64851
47 1 20.2762 56.854 -9.40825
48 1 20.2145 56.9987 -10.3564
49 1 19.2786 56.8702 -10.2005
50 1 18.4717 56.634 -9.78058
51 1 18.5237 57.0696 -8.90677
52 1 18.7986 56.6652 -8.15045
53 1 19.6997 56.3629 -8.012
54 1 19.5841 56.4737 -7.05507
55 1 20.5168 56.5596 -6.82321
56 1 20.9075 56.6038 -5.99212
57 1 20.6176 55.6889 -5.70745
58 1 19.7095 55.5768 -5.30453
59 1 19.1071 55.2324 -4.79754
60 1 18.6458 55.1639 -3.99089
61 1 18.2185 54.6611 -3.35198
62 1 19.0501 54.286 -3.43337
63 1 19.2254 54.5816 -2.50788
64 1 18.7092 54.3809 -1.75309
ITEM: TIMESTEP
1690000
ITEM: NUMBER OF ATOMS
64
ITEM: BOX BOUNDS mm mm mm
-3.2000000000000000e+01 3.2000000000000000e+01
-3.2000000000000000e+01 5.9956003308377483e+01
-3.2000000000000000e+01 3.2000000000000000e+01
ITEM: ATOMS id type x y z
1 1 19.8085 50.7604 -9.46261
2 1 20.1662 51.6481 -9.51125
3 1 19.977 52.3593 -10.1341
4 1 19.9682 53.2207 -10.523
5 1 19.1372 53.782 -10.4601
6 1 18.1717 53.6038 -10.598
7 1 17.6979 53.2118 -9.90274
8 1 17.3163 52.3818 -9.97249
9 1 16.8854 52.2051 -9.18863
10 1 16.2321 52.5644 -9.81831
11 1 15.3371 52.6119 -10.0649
12 1 15.086 52.4852 -10.9679
13 1 14.3524 51.8924 -10.8061
14 1 13.9367 52.6876 -10.4822
15 1 13.0653 52.9021 -10.3543
16 1 12.5892 52.8578 -9.47681
17 1 13.1848 53.5565 -9.32707
18 1 14.0269 53.2781 -9.58706
19 1 14.5106 54.0548 -9.87134
20 1 15.1686 54.4335 -10.3986
21 1 15.5403 54.4806 -11.2527
22 1 16.2521 55.0651 -11.047
23 1 16.5687 55.943 -11.0863
24 1 15.8551 56.3579 -10.6404
25 1 16.3646 56.8413 -9.98395
26 1 15.7682 57.6252 -9.99095
27 1 15.8192 58.5693 -10.126
28 1 15.1615 59.2463 -10.2188
29 1 15.2438 59.4046 -11.147
30 1 15.291 59.4788 -12.0694
31 1 15.1591 59.0614 -12.9126
32 1 15.0771 59.5038 -13.7467
33 1 15.9518 59.4762 -14.0706
34 1 16.1437 58.6897 -13.5642
35 1 16.2484 59.3951 -12.9236
36 1 17.0384 58.9452 -12.852
37 1 17.5323 58.1194 -12.8793
38 1 16.7365 58.0169 -12.426
39 1 17.1288 58.2728 -11.6031
40 1 17.0563 58.9331 -10.9633
41 1 16.8456 59.4896 -11.6779
42 1 17.7888 59.4823 -11.5138
43 1 17.718 59.905 -10.707
44 1 17.371 59.3703 -10.0694
45 1 17.9085 58.6691 -10.266
46 1 18.4761 58.0503 -10.7103
47 1 18.222 57.7878 -9.84305
48 1 18.1699 57.3374 -9.03549
49 1 17.6243 57.1083 -8.30084
50 1 18.3122 56.4849 -8.486
51 1 18.3793 55.8288 -7.81075
52 1 18.188 55.0571 -8.35847
53 1 18.4215 54.1477 -8.15672
54 1 17.9801 53.3907 -7.98729
55 1 17.1352 53.4014 -7.67661
56 1 16.3943 53.9091 -7.98826
57 1 16.3719 54.5922 -8.6355
58 1 15.7801 55.2108 -8.29526
59 1 14.8734 55.0693 -8.40121
60 1 13.9227 55.0505 -8.3958
61 1 13.6451 54.9684 -7.49809
62 1 14.373 55.0284 -6.90369
63 1 14.5828 54.5713 -6.13178
64 1 14.1831 54.866 -5.35521
ITEM: TIMESTEP
1700000
ITEM: NUMBER OF ATOMS
64
ITEM: BOX BOUNDS mm mm mm
-3.2000000000000000e+01 3.2000000000000000e+01
-3.2000000000000000e+01 6.1363021203350620e+01
-3.2000000000000000e+01 3.2000000000000000e+01
ITEM: ATOMS id type x y z
1 1 8.80048 50.6576 -11.1891
2 1 8.64725 51.2859 -11.8795
3 1 9.56768 51.034 -11.8224
4 1 9.73983 50.9593 -12.7318
5 1 10.3936 51.5657 -12.5301
6 1 10.7381 52.4154 -12.6175
7 1 10.9099 53.071 -12.0341
8 1 11.7381 53.4854 -12.12
9 1 11.5616 54.252 -12.6669
10 1 11.0727 54.9931 -12.3348
11 1 11.5466 55.8169 -12.2959
12 1 11.3249 55.5005 -13.1562
13 1 12.1929 55.0742 -13.1346
14 1 13.0713 54.7293 -12.8159
15 1 13.6156 54.1426 -12.3235
16 1 14.5447 54.1069 -12.1557
17 1 14.935 53.9758 -12.9993
18 1 14.5142 53.1438 -12.8531
19 1 14.1581 53.3417 -13.7185
20 1 14.9636 53.6548 -14.1399
21 1 14.7057 53.9701 -15.0617
22 1 14.231 53.8344 -15.8848
23 1 13.7018 54.5537 -16.0845
24 1 14.01 55.1192 -15.3834
25 1 14.0916 55.4788 -14.4768
26 1 13.6486 56.1705 -13.9564
27 1 14.5074 56.4555 -14.2547
28 1 15.2007 56.7605 -14.8218
29 1 14.9255 56.5472 -15.7112
30 1 14.1636 56.175 -16.1365
31 1 14.2198 57.0859 -16.5273
32 1 13.9647 57.7881 -15.905
33 1 13.9629 58.3149 -15.1259
34 1 13.1583 58.7079 -14.886
35 1 12.7398 59.4288 -14.3905
36 1 12.3776 59.9693 -15.0344
37 1 12.3494 60.8582 -15.137
38 1 12.5632 61.0375 -14.2542
39 1 12.7328 60.633 -13.3756
40 1 12.9192 59.707 -13.3937
41 1 12.4682 59.4887 -12.566
42 1 11.9239 59.2603 -11.8404
43 1 12.6487 59.6049 -11.3812
44 1 13.5556 59.8562 -11.52
45 1 13.8933 59.0228 -11.1039
46 1 13.406 58.5962 -10.3359
47 1 13.5697 58.7437 -9.4483
48 1 13.357 58.5296 -8.55672
49 1 12.7345 58.0505 -9.11719
50 1 11.8193 58.2081 -9.12463
51 1 11.0309 57.7468 -9.18081
52 1 10.0554 57.6069 -9.10978
53 1 9.92167 57.4105 -10.018
54 1 10.6103 56.8122 -9.75572
55 1 10.8098 56.4705 -8.92475
56 1 10.9842 56.8392 -8.04906
57 1 11.7601 56.6092 -7.60807
58 1 12.3629 55.9324 -7.33123
59 1 13.1162 56.1197 -7.89377
60 1 13.0279 55.6615 -8.77273
61 1 12.1609 55.3904 -9.00046
62 1 11.457 54.9958 -9.43139
63 1 11.5277 55.4015 -10.2817
64 1 12.3205 55.944 -10.2175
ITEM: TIMESTEP
1710000
ITEM: NUMBER OF ATOMS
64
ITEM: BOX BOUNDS mm mm mm
-3.2000000000000000e+01 3.2000000000000000e+01
-3.2000000000000000e+01 6.5833649045655605e+01
-3.2000000000000000e+01 3.2000000000000000e+01
ITEM: ATOMS id type x y z
1 1 11.7054 52.7599 -11.6296
2 1 11.4203 53.1794 -10.8388
3 1 12.123 53.8812 -10.8096
4 1 12.0003 54.8261 -10.6653
5 1 12.8702 54.9043 -10.3787
6 1 13.1731 54.0864 -10.7681
7 1 13.9924 54.2393 -11.1387
8 1 14.0295 54.4792 -12.0854
9 1 14.1513 55.3153 -12.6304
10 1 13.755 55.3093 -13.4869
11 1 14.0279 56.0375 -13.9754
12 1 14.4654 56.4488 -14.7231
13 1 14.4409 57.2342 -15.2653
14 1 14.2781 57.9774 -14.6465
15 1 14.8051 58.4968 -14.0683
16 1 15.1732 59.0266 -14.7503
17 1 16.0274 58.6823 -14.7919
18 1 15.8343 58.999 -13.9208
19 1 16.4059 59.3554 -13.2913
20 1 17.2341 59.829 -13.5473
21 1 17.9443 60.1995 -12.9729
22 1 18.0151 60.483 -12.0149
23 1 17.5598 59.8044 -11.597
24 1 16.9053 59.4316 -11.023
25 1 16.2671 60.0053 -10.7601
26 1 15.3634 60.1307 -10.4677
27 1 15.3471 61.0284 -10.775
28 1 14.5379 60.6992 -10.4841
29 1 13.7558 60.7967 -10.9485
30 1 14.2825 60.6949 -11.7064
31 1 14.3758 60.3238 -12.5752
32 1 14.7417 59.826 -11.8535
33 1 14.147 59.5912 -11.1357
34 1 13.739 59.5312 -11.9294
35 1 13.2158 58.9424 -12.3826
36 1 12.4604 58.5716 -11.9788
37 1 12.0423 57.898 -11.3465
38 1 11.9077 58.7187 -10.9445
39 1 12.5097 59.4281 -11.086
40 1 12.4229 60.3066 -11.454
41 1 12.2085 60.3316 -10.5087
42 1 11.8515 60.0017 -9.73445
43 1 12.3614 60.6952 -9.26514
44 1 11.3901 60.704 -9.10954
45 1 11.1451 60.7217 -8.2124
46 1 11.2972 61.3387 -7.47617
47 1 11.8368 61.8315 -6.92783
48 1 12.5879 61.4018 -7.28303
49 1 13.4726 61.5756 -7.04934
50 1 13.6898 60.8378 -7.48535
51 1 14.4746 61.1164 -7.8079
52 1 14.9438 61.3992 -8.58909
53 1 15.0392 62.0568 -7.98397
54 1 14.4345 62.681 -7.57521
55 1 14.8144 62.958 -6.75913
56 1 14.3645 63.6571 -7.20803
57 1 13.6457 64.2074 -7.56008
58 1 13.2638 64.8188 -8.15943
59 1 12.3975 65.1699 -8.43858
60 1 11.5235 65.6058 -8.40408
61 1 11.0957 66.081 -7.69996
62 1 11.1909 65.2829 -7.1966
63 1 11.5141 64.8881 -6.34625
64 1 11.9158 65.7559 -6.15327
ITEM: TIMESTEP
1720000
ITEM: NUMBER OF ATOMS
64
ITEM: BOX BOUNDS mm mm mm
-3.2000000000000000e+01 3.2000000000000000e+01
-3.2000000000000000e+01 6.7793759857658401e+01
-3.2000000000000000e+01 3.2000000000000000e+01
ITEM: ATOMS id type x y z
1 1 14.0578 52.4965 -9.62747
2 1 14.4244 53.3403 -9.52056
3 1 14.3448 54.229 -9.24997
4 1 13.8927 54.7804 -8.61949
5 1 13.2771 55.4851 -8.51465
6 1 13.3173 55.8597 -7.67257
7 1 12.9092 55.4175 -6.8855
8 1 12.0405 55.1077 -6.91277
9 1 11.7503 55.7737 -7.48397
10 1 12.2395 55.9278 -8.31796
11 1 11.7587 55.6467 -9.10806
12 1 11.6363 56.4427 -9.5932
13 1 11.5308 57.2728 -10.1118
14 1 12.1071 57.7906 -10.5695
15 1 11.5848 58.6346 -10.6318
16 1 12.0766 59.3831 -10.8315
17 1 12.7365 59.8011 -11.315
18 1 12.8059 60.6801 -11.1071
19 1 13.71 60.8629 -11.3696
20 1 14.1345 61.0558 -12.2074
21 1 13.4268 61.3101 -12.728
22 1 13.019 60.4834 -12.9207
23 1 12.1527 60.0393 -12.9886
24 1 12.1746 60.7914 -12.3876
25 1 12.1462 61.3626 -11.5581
26 1 12.083 62.3409 -11.6161
27 1 11.2959 62.8702 -11.8198
28 1 11.494 63.726 -11.5056
29 1 10.5778 63.7912 -11.681
30 1 10.7797 63.459 -10.8491
31 1 10.434 62.8487 -10.2022
32 1 10.4792 62.291 -9.46431
33 1 11.1444 62.3704 -8.80025
34 1 11.271 61.8923 -7.96459
35 1 10.4208 61.8471 -7.54271
36 1 10.7524 62.6809 -7.20604
37 1 11.1635 63.46 -7.37275
38 1 11.9768 63.4156 -7.91639
39 1 12.1534 64.2884 -7.46075
40 1 11.9568 64.3042 -6.53009
41 1 11.6131 65.1079 -6.27083
42 1 10.946 64.6881 -5.76727
43 1 10.8746 65.367 -4.9891
44 1 11.6915 65.7879 -5.26471
45 1 11.1723 66.0778 -5.94056
46 1 11.6507 66.8973 -5.85052
47 1 12.0801 67.2116 -5.06199
48 1 12.9437 67.4471 -4.88456
49 1 13.5881 66.8468 -5.25656
50 1 14.3818 67.256 -4.97052
51 1 15.0951 67.8676 -5.22345
52 1 15.4659 67.0966 -5.64939
53 1 15.0528 67.3982 -6.42255
54 1 15.0948 66.5301 -6.67806
55 1 14.4624 65.8474 -6.62767
56 1 14.1042 65.4336 -5.84842
57 1 14.5878 65.4867 -4.97791
58 1 15.422 65.1174 -4.7052
59 1 16.2404 64.6277 -4.72926
60 1 15.9648 63.7175 -4.75479
61 1 15.7598 63.0878 -4.06594
62 1 15.7801 63.255 -3.12523
63 1 16.5966 63.7764 -3.23994
64 1 17.3266 64.3319 -3.04583
ITEM: TIMESTEP
1730000
ITEM: NUMBER OF ATOMS
64
ITEM: BOX BOUNDS mm mm mm
-3.2000000000000000e+01 3.2000000000000000e+01
-3.2000000000000000e+01 6.7993359255938799e+01
-3.2000000000000000e+01 3.2000000000000000e+01
ITEM: ATOMS id type x y z
1 1 10.6828 54.7998 -9.67563
2 1 9.79033 54.9355 -9.61604
3 1 9.3513 55.73 -9.30934
4 1 9.52528 56.163 -8.47957
5 1 10.1817 56.7428 -8.1045
6 1 11.0435 57.1081 -8.31071
7 1 11.3362 56.9257 -7.41442
8 1 12.0333 57.154 -7.90581
9 1 12.226 57.703 -8.65359
10 1 12.7561 58.4502 -8.39004
11 1 13.3638 58.4015 -9.13316
12 1 14.3057 58.3435 -8.79437
13 1 14.9212 58.0371 -8.1772
14 1 15.0367 58.7251 -7.49428
15 1 14.5001 59.472 -7.732
16 1 14.0731 59.9465 -7.03092
17 1 13.2399 60.3807 -6.86861
18 1 12.8031 60.9191 -7.46447
19 1 12.3257 61.0948 -6.64973
20 1 11.5174 61.1241 -6.26875
21 1 10.7774 61.207 -6.87985
22 1 10.0941 60.8587 -7.43295
23 1 10.3051 60.2625 -6.77979
24 1 10.7169 59.6388 -7.33753
25 1 10.3451 60.101 -8.07058
26 1 10.2644 59.3771 -8.70939
27 1 10.73 58.7057 -9.22734
28 1 10.6594 58.7947 -10.2085
29 1 10.3056 59.6566 -10.4106
30 1 10.0397 60.4307 -9.86116
31 1 10.9675 60.6535 -9.75632
32 1 11.3882 61.2952 -10.3062
33 1 11.782 62.1137 -10.0221
34 1 12.4807 62.1432 -10.6621
35 1 13.2417 62.4488 -10.2178
36 1 13.6767 63.2471 -10.5987
37 1 13.8723 63.7522 -11.3503
38 1 13.1978 64.3523 -11.1386
39 1 12.8619 64.9992 -11.7797
40 1 13.7633 65.1279 -11.799
41 1 14.0327 65.3535 -10.9464
42 1 14.8588 65.5238 -10.6408
43 1 14.4341 66.268 -10.2666
44 1 15.2966 66.3958 -10.0125
45 1 16.1696 66.7163 -9.98545
46 1 16.288 67.6253 -10.2768
47 1 17.0475 67.9321 -9.87276
48 1 17.8675 67.9884 -9.32364
49 1 17.6327 67.1954 -8.95128
50 1 17.7078 66.7728 -9.84968
51 1 17.3145 65.9212 -9.82596
52 1 16.521 65.6232 -9.44533
53 1 16.9804 64.8979 -9.05168
54 1 17.6166 65.4614 -8.59449
55 1 18.2589 65.9501 -8.06094
56 1 18.782 65.7357 -7.33431
57 1 18.872 65.1047 -7.98075
58 1 19.7639 65.1692 -7.7482
59 1 19.5754 64.5023 -7.02633
60 1 20.3645 64.1552 -6.7084
61 1 20.4916 64.1327 -5.82182
62 1 20.2852 63.6031 -5.0682
63 1 20.2612 64.3087 -4.397
64 1 19.6378 63.7192 -4.04521
ITEM: TIMESTEP
1740000
ITEM: NUMBER OF ATOMS
64
ITEM: BOX BOUNDS mm mm mm
-3.2000000000000000e+01 3.2000000000000000e+01
-3.2000000000000000e+01 6.9702119273450450e+01
-3.2000000000000000e+01 3.2000000000000000e+01
ITEM: ATOMS id type x y z
1 1 12.0307 58.6899 -8.45032
2 1 11.414 58.5305 -7.81072
3 1 10.4701 58.6298 -7.7631
4 1 10.457 57.7412 -7.32791
5 1 9.59655 57.4082 -7.52067
6 1 8.74072 57.2885 -7.86669
7 1 8.14016 57.7003 -7.2926
8 1 7.77394 58.5712 -7.08785
9 1 7.26833 59.1738 -6.67092
10 1 7.44647 60.0331 -6.94823
11 1 7.90815 59.7727 -7.69508
12 1 7.98101 59.0276 -8.28739
13 1 8.11143 59.1807 -9.24401
14 1 7.88018 60.1398 -9.30311
15 1 8.37556 60.5977 -9.95675
16 1 8.01281 61.3012 -9.42639
17 1 7.07707 61.1585 -9.57738
18 1 6.40402 61.7025 -9.80707
19 1 5.78653 62.108 -10.4098
20 1 6.37553 62.8769 -10.5807
21 1 6.33736 63.7971 -10.7182
22 1 6.94591 64.4994 -10.8996
23 1 7.1544 65.2756 -11.2886
24 1 7.11523 64.9318 -12.1775
25 1 7.54856 65.406 -12.8841
26 1 8.03753 65.3625 -13.7382
27 1 8.72999 65.9217 -14.1073
28 1 8.43799 66.1465 -15.0322
29 1 9.20072 65.9632 -15.6179
30 1 9.41151 65.4255 -14.8648
31 1 10.2611 65.9209 -14.7023
32 1 10.3982 65.8307 -13.8056
33 1 11.03 66.4385 -14.0981
34 1 11.3945 67.1699 -13.6016
35 1 11.0641 66.9695 -12.7118
36 1 11.2347 66.4827 -11.9157
37 1 12.0141 66.2451 -12.3407
38 1 12.4748 66.7932 -11.7479
39 1 12.9676 66.3479 -11.0957
40 1 13.4898 67.1357 -10.8291
41 1 12.6068 67.4985 -10.8528
42 1 12.6911 67.9207 -9.99292
43 1 12.8682 68.8059 -10.1125
44 1 13.4247 69.2596 -10.7845
45 1 14.2183 68.9685 -10.4057
46 1 15.1426 68.9075 -10.4012
47 1 15.4876 69.7416 -10.4703
48 1 16.3394 69.5721 -10.1729
49 1 16.5535 68.7002 -9.85262
50 1 16.6377 67.9014 -9.38093
51 1 16.8173 67.7837 -8.41752
52 1 17.668 67.4831 -8.02796
53 1 17.8583 67.3029 -7.1139
54 1 18.2078 66.9656 -6.28839
55 1 17.4014 66.8318 -5.79883
56 1 16.8947 67.5721 -6.0725
57 1 16.0609 67.1952 -6.33642
58 1 15.3564 66.6677 -6.38252
59 1 16.06 66.0678 -6.09181
60 1 16.5962 65.5487 -5.53571
61 1 16.9695 64.6533 -5.4763
62 1 16.9278 64.7538 -6.42023
63 1 16.8738 64.0699 -7.07313
64 1 15.938 63.7951 -7.00894
ITEM: TIMESTEP
1750000
ITEM: NUMBER OF ATOMS
64
ITEM: BOX BOUNDS mm mm mm
-3.2000000000000000e+01 3.2000000000000000e+01
-3.2000000000000000e+01 6.9480894073863610e+01
-3.2000000000000000e+01 3.2000000000000000e+01
ITEM: ATOMS id type x y z
1 1 8.62927 60.4844 -9.02442
2 1 8.35199 59.6336 -8.74754
3 1 8.01029 59.6169 -7.8469
4 1 7.92961 60.3316 -7.26915
5 1 7.95514 60.4655 -6.37588
6 1 8.52994 61.1929 -6.07753
7 1 9.4612 61.1809 -6.12662
8 1 9.5398 61.7135 -6.8343
9 1 10.4521 62.0022 -6.59687
10 1 11.1906 61.5813 -7.01926
11 1 11.8793 60.9982 -6.76035
12 1 12.6398 61.4769 -6.50167
13 1 12.7118 62.3011 -7.0091
14 1 12.9098 62.7116 -7.83933
15 1 13.6306 62.098 -7.66251
16 1 13.7728 61.4927 -8.33342
17 1 14.1525 61.2539 -9.17831
18 1 13.9629 60.481 -9.71813
19 1 13.6035 60.4593 -10.5662
20 1 13.0589 60.0839 -11.2438
21 1 12.9059 59.8123 -12.1525
22 1 13.599 60.3833 -12.2419
23 1 13.0029 61.1439 -12.0889
24 1 12.0918 61.1344 -11.9269
25 1 12.2002 61.306 -12.8666
26 1 12.0462 62.107 -13.3657
27 1 12.1098 63.0097 -13.6211
28 1 13.0416 63.0645 -13.3742
29 1 13.0839 62.7002 -12.4455
30 1 12.7499 63.6191 -12.5153
31 1 12.9522 64.1067 -13.2888
32 1 12.9272 64.7621 -14.0662
33 1 13.0229 65.643 -14.1042
34 1 12.9897 66.3897 -13.5326
35 1 13.5541 65.743 -13.1409
36 1 13.5285 66.1876 -12.3085
37 1 13.6411 65.3214 -11.9476
38 1 14.5233 65.3755 -11.6129
39 1 14.8344 64.6925 -11.0432
40 1 14.4997 64.1046 -10.4078
41 1 14.6509 63.2713 -10.8376
42 1 13.796 62.8747 -10.9237
43 1 14.0211 62.095 -10.4994
44 1 14.1914 62.4576 -9.64286
45 1 13.8359 63.1619 -9.2576
46 1 13.2863 63.5367 -8.61147
47 1 13.5931 64.3993 -8.8423
48 1 13.1467 64.616 -9.75627
49 1 13.4942 65.5188 -9.75255
50 1 14.1713 66.2817 -9.81765
51 1 14.2662 65.8319 -10.6117
52 1 13.51 65.8981 -11.1403
53 1 13.8135 66.7942 -11.3235
54 1 13.8967 67.4926 -11.9565
55 1 14.2492 68.355 -12.0558
56 1 14.8758 68.7711 -11.4612
57 1 15.3684 68.3649 -10.7846
58 1 15.3376 69.001 -10.1143
59 1 16.0935 69.5952 -9.88063
60 1 15.5782 69.3077 -9.11272
61 1 15.3247 68.9608 -8.2534
62 1 15.4225 68.0963 -7.90763
63 1 15.8479 67.6562 -7.14751
64 1 15.2014 67.0274 -6.76456
ITEM: TIMESTEP
1760000
ITEM: NUMBER OF ATOMS
64
ITEM: BOX BOUNDS mm mm mm
-3.2000000000000000e+01 3.2000000000000000e+01
-3.2000000000000000e+01 7.0486711350621363e+01
-3.2000000000000000e+01 3.2000000000000000e+01
ITEM: ATOMS id type x y z
1 1 12.5314 62.5422 -11.1753
2 1 11.8578 62.694 -11.7197
3 1 11.3883 63.4405 -11.3399
4 1 11.2817 63.8839 -10.5057
5 1 10.856 63.1609 -10.0148
6 1 11.0586 62.3345 -9.59486
7 1 11.7672 61.7904 -9.70173
8 1 11.3722 61.3279 -10.4123
9 1 11.4683 60.3833 -10.5527
10 1 11.143 59.5157 -10.3781
11 1 11.3047 59.4818 -11.2726
12 1 11.6919 58.626 -11.0173
13 1 12.3412 57.9526 -11.03
14 1 13.2043 57.4989 -10.9331
15 1 13.7151 57.9906 -10.2835
16 1 14.2221 58.5698 -9.76748
17 1 14.7462 59.3509 -9.93399
18 1 15.3996 59.1879 -9.24943
19 1 15.2138 58.2798 -9.24357
20 1 15.0978 57.6444 -9.88381
21 1 14.546 57.4793 -10.5896
22 1 14.5666 57.9814 -11.3626
23 1 14.6221 58.9231 -11.5445
24 1 14.7844 59.8441 -11.8489
25 1 15.6602 59.6147 -11.6484
26 1 16.5124 59.4975 -11.9202
27 1 17.4354 59.3701 -11.7449
28 1 17.7963 59.9785 -12.3083
29 1 16.9862 60.5007 -12.3724
30 1 17.1529 61.3852 -12.7127
31 1 18.0983 61.0799 -12.8722
32 1 18.0866 62.01 -12.8461
33 1 18.2319 62.6975 -12.2705
34 1 17.7925 62.3902 -11.5105
35 1 17.1278 61.9876 -10.964
36 1 16.1574 61.9524 -10.8109
37 1 16.3007 62.6511 -10.1987
38 1 16.1046 63.4491 -10.6023
39 1 16.423 64.0361 -11.2091
40 1 17.3025 63.7139 -11.1535
41 1 18.0834 64.0844 -10.7338
42 1 17.9372 64.515 -9.92975
43 1 17.9147 63.5911 -9.7959
44 1 17.7249 62.6871 -9.54964
45 1 18.4798 62.5011 -9.00131
46 1 18.4427 62.6334 -8.05955
47 1 18.4251 63.338 -7.38866
48 1 18.7518 64.1639 -7.15255
49 1 18.4937 64.9983 -7.3939
50 1 18.2229 64.3716 -8.10244
51 1 17.5932 64.9756 -8.38767
52 1 17.0816 65.733 -8.6436
53 1 16.7043 66.5426 -8.4117
54 1 17.0199 66.6636 -9.27669
55 1 17.9018 66.8635 -9.296
56 1 18.613 67.3954 -9.48105
57 1 18.1193 68.1693 -9.39313
58 1 17.47 68.373 -10.0086
59 1 18.1294 68.101 -10.6598
60 1 18.3864 68.877 -11.0378
61 1 18.1835 68.8604 -11.9608
62 1 18.8991 69.4067 -12.3287
63 1 19.259 70.0443 -12.9005
64 1 20.0389 70.4573 -13.1426
ITEM: TIMESTEP
1770000
ITEM: NUMBER OF ATOMS
64
ITEM: BOX BOUNDS mm mm mm
-3.2000000000000000e+01 3.2000000000000000e+01
-3.2000000000000000e+01 6.4214586663854064e+01
-3.2000000000000000e+01 3.2000000000000000e+01
ITEM: ATOMS id type x y z
1 1 11.8012 55.6773 -5.94718
2 1 11.1431 56.286 -6.12036
3 1 10.6876 56.997 -5.73855
4 1 11.3349 57.6055 -6.00906
5 1 11.8805 58.2958 -6.30577
6 1 12.6236 58.6064 -6.8011
7 1 12.7563 59.3634 -7.34144
8 1 13.3934 59.8564 -7.85785
9 1 13.0696 60.4272 -8.57645
10 1 12.2873 59.8962 -8.90211
11 1 12.3062 60.1067 -9.84152
12 1 11.723 60.5565 -10.3919
13 1 11.9606 61.4338 -10.0788
14 1 11.5669 62.2407 -9.97247
15 1 11.3813 63.1805 -9.89371
16 1 11.8259 63.8256 -9.41018
17 1 12.2174 63.0275 -9.06174
18 1 12.9716 62.7689 -8.68499
19 1 13.3513 63.3702 -9.25778
20 1 12.9195 63.253 -10.0613
21 1 13.1057 64.1187 -9.93128
22 1 13.5481 64.0495 -10.8529
23 1 14.4667 63.9227 -11.001
24 1 15.1328 63.4298 -11.4258
25 1 15.0751 62.4786 -11.5027
26 1 15.3157 61.737 -10.9258
27 1 15.4129 61.3777 -11.83
28 1 16.1768 60.8447 -11.7649
29 1 16.1092 59.9173 -12.0964
30 1 16.885 59.3677 -12.395
31 1 16.1515 58.836 -12.2396
32 1 15.7048 58.3128 -12.8512
33 1 15.1417 57.7551 -13.3217
34 1 15.0412 58.1252 -14.1664
35 1 14.6557 58.9514 -14.3134
36 1 14.321 59.1295 -13.4759
37 1 14.648 59.0619 -12.581
38 1 14.8737 58.6283 -11.782
39 1 15.1255 59.4674 -11.4205
40 1 16.0468 59.3659 -11.1013
41 1 16.6964 58.6921 -11.1013
42 1 17.4856 59.0352 -10.7648
43 1 17.2575 59.9636 -10.9114
44 1 17.845 60.601 -11.2703
45 1 18.364 60.1989 -10.6096
46 1 19.1492 60.214 -10.1269
47 1 19.8208 60.2204 -9.47727
48 1 19.8456 60.9541 -9.01808
49 1 19.5012 61.6964 -8.46387
50 1 19.4948 62.3172 -9.20122
51 1 19.0236 62.2128 -10.0643
52 1 19.258 61.7155 -10.8089
53 1 19.5972 61.0188 -11.4001
54 1 19.5075 60.5905 -12.278
55 1 19.7816 61.3734 -12.7023
56 1 20.5943 61.7552 -12.6017
57 1 21.4911 61.8965 -12.4751
58 1 21.5542 62.1212 -11.5671
59 1 21.2518 62.8746 -11.0814
60 1 21.1758 63.724 -11.5915
61 1 21.7462 63.9244 -10.8409
62 1 21.1168 64.0521 -10.1812
63 1 21.1186 63.8106 -9.2931
64 1 20.2113 63.7269 -9.51845
ITEM: TIMESTEP
1780000
ITEM: NUMBER OF ATOMS
64
ITEM: BOX BOUNDS mm mm mm
-3.2000000000000000e+01 3.2000000000000000e+01
-3.2000000000000000e+01 6.3665920529748959e+01
-3.2000000000000000e+01 3.2000000000000000e+01
ITEM: ATOMS id type x y z
1 1 11.6076 62.7674 -2.75798
2 1 12.2762 62.6568 -3.47151
3 1 12.5855 61.7153 -3.67733
4 1 12.7453 60.8752 -3.24884
5 1 13.3729 60.6022 -3.88244
6 1 14.0725 60.9073 -3.32789
7 1 14.8207 61.1899 -2.89678
8 1 15.6269 61.7631 -2.966
9 1 14.8795 62.2234 -2.66555
10 1 14.8764 63.0741 -2.95268
11 1 15.6579 63.5987 -3.23512
12 1 15.8648 63.6266 -4.12361
13 1 15.7327 63.7381 -5.01059
14 1 16.4746 63.1971 -5.18336
15 1 15.6998 62.7563 -5.46599
16 1 15.3433 61.8548 -5.19248
17 1 14.3852 62.0053 -5.34616
18 1 14.2313 61.2053 -5.72904
19 1 13.8066 61.7594 -6.43607
20 1 14.5332 61.6752 -6.94084
21 1 15.241 61.7432 -6.27221
22 1 15.8247 61.5759 -7.04763
23 1 15.5778 61.0181 -7.77639
24 1 15.9005 60.8041 -8.63939
25 1 15.7211 60.2786 -9.38542
26 1 16.324 60.8254 -9.86631
27 1 15.9298 61.7188 -9.96192
28 1 16.0598 62.336 -9.26668
29 1 16.6437 62.8171 -9.87383
30 1 16.5065 63.1072 -10.7084
31 1 16.2265 62.5851 -11.4478
32 1 16.8125 61.967 -11.0408
33 1 17.3546 61.2126 -11.1185
34 1 17.9609 60.8809 -11.6851
35 1 18.7836 60.7255 -11.2393
36 1 18.7586 59.8494 -11.605
37 1 18.8665 58.9143 -11.513
38 1 18.9095 58.7673 -12.4461
39 1 19.4297 58.205 -13.0489
40 1 20.3135 58.0187 -12.6945
41 1 20.1163 57.1106 -12.7263
42 1 20.7404 57.1025 -12.0122
43 1 20.1996 57.1391 -11.2249
44 1 19.3719 56.6178 -11.1593
45 1 19.7803 56.5234 -10.2652
46 1 19.3915 57.3801 -10.3716
47 1 19.3257 57.6932 -9.45873
48 1 19.9609 57.0217 -9.25073
49 1 20.8381 56.8271 -9.53265
50 1 21.659 57.3544 -9.52992
51 1 21.5902 57.9018 -10.2367
52 1 21.5892 58.4523 -10.9731
53 1 20.9045 59.1924 -11.0142
54 1 20.7479 60.0674 -10.7576
55 1 21.5662 60.53 -10.6114
56 1 22.3359 60.7436 -11.1478
57 1 23.0853 60.2444 -11.428
58 1 23.3844 60.0419 -10.5927
59 1 22.9621 59.2794 -10.861
60 1 23.4345 58.528 -10.4791
61 1 23.5266 58.1655 -9.60288
62 1 23.858 58.9082 -9.20361
63 1 24.3083 58.6784 -8.40669
64 1 24.7155 59.2473 -7.76059
ITEM: TIMESTEP
1790000
ITEM: NUMBER OF ATOMS
64
ITEM: BOX BOUNDS mm mm mm
-3.2000000000000000e+01 3.2000000000000000e+01
-3.2000000000000000e+01 6.6138123453913394e+01
-3.2000000000000000e+01 3.2000000000000000e+01
ITEM: ATOMS id type x y z
1 1 18.2296 60.5379 -3.65039
2 1 18.2211 60.2123 -2.78782
3 1 17.9143 60.483 -1.90604
4 1 18.1425 61.2514 -2.36968
5 1 19.1103 61.1328 -2.49605
6 1 19.902 60.6242 -2.61113
7 1 20.1795 60.6495 -3.54308
8 1 20.9435 60.6386 -4.11293
9 1 20.283 61.1345 -4.60315
10 1 20.6891 62.0083 -4.57984
11 1 20.8389 61.6166 -3.66161
12 1 21.7196 61.6589 -3.83847
13 1 22.2364 61.6877 -4.66287
14 1 21.6906 62.3808 -4.87393
15 1 22.0595 62.2048 -5.73887
16 1 22.8859 62.3917 -6.09521
17 1 22.5898 62.987 -6.81888
18 1 22.1613 63.6621 -7.26118
19 1 21.34 63.7021 -6.75103
20 1 20.9109 64.1116 -6.0016
21 1 20.2409 64.4291 -6.58898
22 1 20.1439 65.3691 -6.87225
23 1 19.5775 66.1122 -6.49772
24 1 18.612 66.1288 -6.43987
25 1 18.9072 65.3029 -6.71849
26 1 18.9977 64.7763 -5.96939
27 1 18.2991 64.3223 -6.46084
28 1 18.1334 63.3875 -6.43695
29 1 18.2093 62.4399 -6.701
30 1 18.1502 61.4929 -6.72661
31 1 17.3428 61.3191 -7.1399
32 1 17.7519 61.5867 -7.94529
33 1 18.2472 60.9058 -8.29319
34 1 17.778 60.0406 -8.33036
35 1 17.8489 59.7547 -9.22663
36 1 18.214 59.0834 -9.8278
37 1 18.3905 58.5282 -10.5801
38 1 19.1792 58.839 -10.0754
39 1 19.447 58.0427 -10.4975
40 1 19.1645 58.0383 -11.4012
41 1 19.6229 58.7616 -11.7746
42 1 20.0554 57.9729 -12.0398
43 1 20.8395 58.1833 -12.5137
44 1 21.2229 58.7335 -13.2201
45 1 20.9803 59.2695 -13.896
46 1 20.898 59.869 -13.2139
47 1 21.6679 60.306 -12.8455
48 1 21.5679 61.1335 -12.4453
49 1 21.6055 61.1669 -11.4991
50 1 21.5063 60.2674 -11.237
51 1 20.8826 59.6629 -10.8935
52 1 21.1251 59.0953 -10.1662
53 1 20.3157 58.5152 -10.0854
54 1 20.0812 57.8436 -9.52918
55 1 20.5147 57.0639 -9.15613
56 1 21.3502 57.4642 -9.04416
57 1 22.1079 57.2457 -8.59261
58 1 22.5267 56.7151 -9.2593
59 1 22.2543 55.8471 -9.06421
60 1 22.7862 55.1721 -8.84648
61 1 22.3292 54.4958 -8.44129
62 1 23.2927 54.4002 -8.22309
63 1 23.7006 54.8558 -7.48213
64 1 23.5082 55.6809 -7.79587
ITEM: TIMESTEP
1800000
ITEM: NUMBER OF ATOMS
64
ITEM: BOX BOUNDS mm mm mm
-3.2000000000000000e+01 3.2000000000000000e+01
-3.2000000000000000e+01 6.5902006592440912e+01
-3.2000000000000000e+01 3.2000000000000000e+01
ITEM: ATOMS id type x y z
1 1 25.79 60.0675 -9.89338
2 1 25.9901 60.3479 -8.9911
3 1 26.2445 59.5696 -8.49255
4 1 26.4593 58.6957 -8.64004
5 1 26.7041 57.8221 -8.64172
6 1 26.1305 57.2964 -9.16714
7 1 25.7481 56.9245 -9.98198
8 1 25.1104 57.2355 -9.27644
9 1 24.2375 56.9733 -9.44016
10 1 23.7459 57.524 -10.0424
11 1 23.2336 57.2523 -9.31186
12 1 23.3286 58.1285 -8.84969
13 1 23.2593 58.9321 -8.383
14 1 23.8279 58.7883 -7.6766
15 1 24.6352 58.856 -7.19506
16 1 24.8735 59.1106 -6.29319
17 1 24.5093 59.9758 -6.50008
18 1 24.0159 60.093 -7.35813
19 1 23.3343 60.025 -6.6884
20 1 23.0408 60.5125 -5.92577
21 1 22.2221 60.8599 -5.82324
22 1 21.6803 61.6778 -5.74006
23 1 21.5358 62.5902 -5.53319
24 1 22.0855 63.1972 -5.963
25 1 21.7155 64.0566 -6.02305
26 1 20.9735 64.4546 -5.65854
27 1 20.5956 65.1048 -5.11235
28 1 19.7591 64.9533 -5.65441
29 1 19.8032 65.5775 -6.33489
30 1 19.3595 65.3495 -7.14393
31 1 19.3529 65.938 -7.90913
32 1 18.6617 65.5217 -8.47517
33 1 18.295 64.8617 -7.83195
34 1 18.4362 64.0037 -8.15316
35 1 17.498 64.1551 -8.25683
36 1 16.6042 64.1112 -8.12514
37 1 16.3252 63.2926 -7.77908
38 1 16.21 62.3365 -7.77424
39 1 16.6209 61.4699 -7.60069
40 1 17.5156 61.1721 -7.8789
41 1 17.109 61.0067 -8.65655
42 1 17.3876 60.1998 -8.92989
43 1 17.2918 59.3521 -8.5619
44 1 18.2386 59.326 -8.50167
45 1 18.7314 60.0055 -8.79134
46 1 19.4619 59.4577 -8.75288
47 1 20.0732 59.4147 -9.42016
48 1 20.9905 59.5469 -9.26716
49 1 20.8814 59.5367 -10.1781
50 1 20.9698 58.7885 -10.7206
51 1 21.8493 58.8982 -10.7362
52 1 21.6986 58.3185 -11.4574
53 1 21.5747 58.2362 -12.3934
54 1 21.5598 57.9156 -13.2925
55 1 21.1619 58.5926 -13.7963
56 1 21.9705 58.9558 -14.1319
57 1 21.6465 59.7548 -13.8723
58 1 21.3344 60.5829 -13.6513
59 1 21.4395 61.4465 -14.052
60 1 20.6373 61.8422 -14.4458
61 1 19.9749 62.3775 -14.0906
62 1 19.6934 62.7857 -14.86
63 1 20.2076 63.5215 -15.132
64 1 20.0767 64.4179 -15.0987
ITEM: TIMESTEP
1810000
ITEM: NUMBER OF ATOMS
64
ITEM: BOX BOUNDS mm mm mm
-3.2000000000000000e+01 3.2000000000000000e+01
-3.2000000000000000e+01 6.0649999038357365e+01
-3.2000000000000000e+01 3.2000000000000000e+01
ITEM: ATOMS id type x y z
1 1 17.3858 51.3949 -8.25133
2 1 18.114 51.4936 -7.65233
3 1 18.1712 52.3225 -7.22328
4 1 17.9326 53.2499 -7.11431
5 1 18.5628 53.66 -6.60159
6 1 18.3294 53.8171 -5.73354
7 1 18.3517 54.6155 -5.3213
8 1 18.5314 55.5285 -5.30061
9 1 19.0008 56.0334 -5.92343
10 1 18.9738 56.6977 -6.59903
11 1 18.2559 57.1473 -6.14049
12 1 18.0627 57.3757 -5.26172
13 1 18.6322 57.0797 -4.58428
14 1 18.0543 56.5652 -4.06273
15 1 17.5529 56.4763 -3.23464
16 1 16.6466 56.4979 -3.09586
17 1 15.74 56.1699 -3.24295
18 1 14.9046 56.4134 -2.93248
19 1 14.4859 55.758 -3.40491
20 1 13.8133 56.3657 -3.68416
21 1 13.4271 57.0285 -4.20537
22 1 13.4378 57.39 -5.08387
23 1 13.2985 57.4077 -5.94786
24 1 12.9652 57.2037 -6.81361
25 1 12.8416 57.4381 -7.71866
26 1 13.4865 58.1256 -7.51996
27 1 13.0462 58.4486 -8.28135
28 1 12.3904 58.3855 -8.93569
29 1 13.1112 58.7544 -9.38902
30 1 13.9375 58.8361 -9.00245
31 1 14.2722 59.0689 -8.17159
32 1 15.1171 59.4733 -8.15384
33 1 15.5003 60.3084 -8.51197
34 1 15.5056 60.2469 -9.42226
35 1 16.2522 60.818 -9.21306
36 1 16.4676 60.705 -10.1353
37 1 16.3517 60.2591 -10.9186
38 1 16.1779 59.4351 -11.3271
39 1 16.2821 58.5514 -11.1268
40 1 17.2415 58.7016 -11.0632
41 1 17.7666 59.2883 -10.491
42 1 17.7516 59.8611 -11.2277
43 1 17.1245 60.0892 -11.9021
44 1 17.9164 59.7475 -12.3007
45 1 18.3265 60.4099 -12.7578
46 1 19.1409 60.5255 -12.2729
47 1 20.1453 60.4857 -12.2613
48 1 20.8493 60.5828 -11.7332
49 1 20.8368 59.6878 -11.52
50 1 20.6111 59.412 -12.4625
51 1 20.8016 58.7414 -13.1173
52 1 21.1478 58.4863 -13.9418
53 1 20.3028 58.0482 -13.782
54 1 21.0228 57.4983 -13.5323
55 1 21.086 56.5595 -13.5999
56 1 21.531 56.5224 -14.4013
57 1 20.6363 56.4499 -14.6015
58 1 19.7475 56.071 -14.7615
59 1 19.9174 55.9534 -15.7013
60 1 20.5606 56.6429 -15.7848
61 1 21.0497 57.3338 -16.1438
62 1 20.5307 58.0606 -16.5481
63 1 19.8105 58.3045 -17.0366
64 1 19.163 58.0824 -17.7338
ITEM: TIMESTEP
1820000
ITEM: NUMBER OF ATOMS
64
ITEM: BOX BOUNDS mm mm mm
-3.2000000000000000e+01 3.2000000000000000e+01
-3.2000000000000000e+01 6.3353976650559886e+01