ITEM: TIMESTEP
2200000
ITEM: NUMBER OF ATOMS
64
ITEM: BOX BOUNDS mm mm mm
-3.2000000000000000e+01 3.2000000000000000e+01
-3.2000000000000000e+01 4.2964838653356097e+01
-3.2000000000000000e+01 3.2000000000000000e+01
ITEM: ATOMS id type x y z
1 1 4.9888 41.0123 3.9
2 1 5.00199 40.4686 3.105
3 1 5.81488 40.3741 3.51514
4 1 6.23168 39.834 2.87568
5 1 6.3226 39.0574 2.30153
6 1 7.13921 38.8271 1.80252
7 1 7.21203 38.5615 0.911396
8 1 7.76826 39.3163 0.827557
9 1 8.2231 39.6159 1.6211
10 1 8.91789 40.0535 1.05941
11 1 9.22316 40.7732 0.389445
12 1 8.71826 41.4773 0.69426
13 1 7.78566 41.3487 0.921283
14 1 7.50471 42.1942 0.702118
15 1 7.30393 42.9573 0.224397
16 1 7.4986 42.9503 -0.710168
17 1 7.01658 42.5089 -1.42008
18 1 7.2163 41.6442 -1.49841
19 1 7.55991 40.7953 -1.1406
20 1 6.59674 40.8933 -0.978681
21 1 5.84783 41.297 -1.4001
22 1 4.96429 41.0031 -1.53965
23 1 4.43875 41.333 -2.22743
24 1 5.3084 41.2471 -2.48761
25 1 5.24227 40.3215 -2.68209
26 1 5.63192 39.5156 -2.4792
27 1 5.54749 38.598 -2.59949
28 1 4.87448 38.0272 -2.8863
29 1 5.30451 38.4647 -3.60768
30 1 5.89937 38.4275 -4.33632
31 1 6.69703 38.5914 -4.81669
32 1 6.60058 39.3121 -5.39716
33 1 5.86241 39.9125 -5.31352
34 1 5.07728 39.8451 -4.87567
35 1 4.85586 39.424 -5.6538
36 1 3.92095 39.3871 -5.35573
37 1 4.15081 38.7368 -6.00828
38 1 3.2488 38.251 -5.96795
39 1 3.04701 37.5562 -6.57419
40 1 2.92436 37.2048 -7.4524
41 1 3.14994 36.6853 -8.14431
42 1 2.9941 36.052 -8.82267
43 1 2.68342 35.7925 -9.65845
44 1 2.93687 35.1113 -10.3365
45 1 3.46677 35.3654 -11.0127
46 1 3.52366 34.4669 -11.3581
47 1 4.07473 33.8872 -11.8505
48 1 4.83374 33.3316 -11.6298
49 1 4.46052 32.5954 -11.1478
50 1 4.31151 31.6789 -11.0564
51 1 3.58791 31.1879 -11.4014
52 1 3.16273 30.4392 -11.6885
53 1 2.3268 30.3043 -11.2841
54 1 2.89145 29.6548 -10.9445
55 1 3.60107 29.0809 -11.2809
56 1 2.80423 28.6206 -11.1471
57 1 1.88494 28.7611 -11.2999
58 1 1.0241 28.6472 -10.8806
59 1 0.81599 28.1179 -10.0955
60 1 1.06622 27.527 -9.42921
61 1 0.868396 27.8221 -8.5342
62 1 1.69468 27.4543 -8.16247
63 1 2.40387 26.8562 -8.03107
64 1 1.86047 26.3686 -7.43928
ITEM: TIMESTEP
2210000
ITEM: NUMBER OF ATOMS
64
ITEM: BOX BOUNDS mm mm mm
-3.2000000000000000e+01 3.2000000000000000e+01
-3.2000000000000000e+01 3.9774053404456708e+01
-3.2000000000000000e+01 3.2000000000000000e+01
ITEM: ATOMS id type x y z
1 1 8.60143 35.028 1.05827
2 1 9.44587 34.6628 1.28541
3 1 10.3576 34.9778 1.20967
4 1 10.5739 34.1206 0.885974
5 1 11.1655 34.7033 0.384788
6 1 11.0602 35.319 -0.290608
7 1 10.3289 34.9969 -0.735972
8 1 9.53654 35.3164 -1.05484
9 1 9.65552 35.1103 -1.98916
10 1 9.81145 35.4883 -2.82766
11 1 9.97476 36.2995 -2.399
12 1 9.81031 37.1645 -2.00188
13 1 10.2331 37.8997 -1.65636
14 1 10.5355 38.777 -1.48872
15 1 10.0628 39.5623 -1.72593
16 1 10.5738 39.5388 -2.57691
17 1 10.686 38.7956 -3.15266
18 1 10.0361 38.5013 -2.56079
19 1 9.43445 39.152 -2.97325
20 1 8.92455 39.6601 -3.57678
21 1 8.79428 39.5976 -4.57227
22 1 8.6257 38.9732 -5.2387
23 1 9.22847 38.3097 -5.0876
24 1 8.6696 37.7864 -4.4592
25 1 9.08856 37.2626 -3.76901
26 1 8.44348 36.7806 -3.2571
27 1 7.61493 36.4593 -3.63003
28 1 7.65252 35.6319 -4.13071
29 1 6.7689 35.5374 -3.87639
30 1 5.82579 35.6294 -3.87122
31 1 5.02241 35.1755 -3.89629
32 1 4.81701 34.3739 -4.34743
33 1 5.22168 34.7981 -5.12369
34 1 5.30206 35.6767 -5.45994
35 1 4.40753 35.6406 -5.01712
36 1 3.60481 35.3571 -5.37816
37 1 4.06391 35.5066 -6.25351
38 1 3.35025 36.0842 -6.52658
39 1 3.93933 35.9528 -7.19775
40 1 4.62537 35.6804 -7.83315
41 1 5.11084 35.361 -8.58259
42 1 5.85 35.7542 -9.08437
43 1 6.72055 35.4902 -9.3074
44 1 6.19958 35.0856 -10.0193
45 1 5.81484 34.9416 -10.8604
46 1 5.3886 34.1219 -10.831
47 1 4.73028 33.5172 -10.811
48 1 4.65555 32.6682 -10.4443
49 1 4.70986 32.6627 -11.364
50 1 4.38104 32.1499 -12.0501
51 1 4.20659 31.2768 -12.1169
52 1 4.10629 30.581 -11.4622
53 1 4.74982 30.141 -10.9345
54 1 5.31571 29.7221 -10.3329
55 1 6.21215 29.842 -10.5812
56 1 7.10251 30.1217 -10.8196
57 1 7.62772 30.8721 -10.4946
58 1 8.33257 30.3222 -10.7784
59 1 9.1273 29.8826 -11.0944
60 1 9.38459 29.0031 -10.7515
61 1 9.13426 28.0865 -10.6877
62 1 9.50828 28.1978 -9.73834
63 1 9.52686 28.9427 -9.12356
64 1 10.322 28.7728 -8.65266
ITEM: TIMESTEP
2220000
ITEM: NUMBER OF ATOMS
64
ITEM: BOX BOUNDS mm mm mm
-3.2000000000000000e+01 3.2000000000000000e+01
-3.2000000000000000e+01 4.0819378625206646e+01
-3.2000000000000000e+01 3.2000000000000000e+01
ITEM: ATOMS id type x y z
1 1 3.50771 40.6125 -2.30645
2 1 4.17422 40.7232 -1.73013
3 1 4.55876 40.0185 -1.25279
4 1 4.05865 39.2776 -1.66666
5 1 3.19483 39.0661 -1.28919
6 1 2.78863 39.0741 -0.450075
7 1 2.02013 39.5468 -0.784646
8 1 2.27785 39.9618 -1.58445
9 1 2.25369 40.4205 -2.40434
10 1 2.34732 40.7712 -3.25644
11 1 2.51844 40.2081 -3.96663
12 1 1.85146 39.9129 -4.58426
13 1 1.36774 39.5813 -3.78691
14 1 1.20545 38.9566 -3.12184
15 1 1.95025 38.4889 -3.46853
16 1 2.15316 37.7313 -4.0465
17 1 2.37968 36.8051 -3.89304
18 1 1.99847 36.8846 -4.73484
19 1 1.09212 36.4684 -4.85244
20 1 1.64221 36.05 -4.21456
21 1 2.40594 35.6049 -3.89887
22 1 2.97358 34.86 -3.92363
23 1 2.58698 34.86 -4.73882
24 1 1.99685 34.467 -5.36847
25 1 1.19358 34.0428 -5.42336
26 1 0.921821 33.3002 -5.98122
27 1 0.966688 33.3866 -6.90683
28 1 0.325606 33.0879 -7.53754
29 1 -0.57286 32.8609 -7.6526
30 1 -1.18316 33.3563 -8.20528
31 1 -1.65154 34.1459 -8.02614
32 1 -1.55504 34.3583 -8.92759
33 1 -0.792462 34.3492 -9.50086
34 1 0.00379193 34.5418 -9.04356
35 1 0.793634 34.2801 -8.497
36 1 1.10154 34.3671 -9.35817
37 1 1.89476 34.5789 -8.95515
38 1 2.61942 34.0825 -9.06169
39 1 3.1578 33.3159 -8.8478
40 1 2.92173 33.1314 -9.76435
41 1 2.58992 33.5269 -10.5342
42 1 2.85256 34.3903 -10.4482
43 1 3.71708 34.7362 -10.1953
44 1 4.56577 34.5462 -10.6289
45 1 4.92965 34.9999 -11.2954
46 1 5.3813 34.1891 -11.5795
47 1 5.0988 33.4441 -11.1493
48 1 5.7908 32.9064 -11.3769
49 1 6.24615 33.6755 -11.257
50 1 7.04965 33.8345 -11.7178
51 1 7.67388 34.0704 -12.4277
52 1 8.62108 33.8976 -12.5143
53 1 8.59818 32.9611 -12.6829
54 1 8.38276 32.5411 -13.4766
55 1 9.24217 32.8928 -13.5965
56 1 9.46216 32.0835 -13.3347
57 1 9.5986 31.7641 -14.2588
58 1 8.94721 31.1806 -14.631
59 1 9.04093 30.2223 -14.4546
60 1 8.43716 29.4661 -14.4586
61 1 7.7407 29.5298 -13.8663
62 1 7.48603 29.0836 -13.0568
63 1 6.56746 29.0834 -12.7738
64 1 5.76977 29.5488 -12.6333
ITEM: TIMESTEP
2230000
ITEM: NUMBER OF ATOMS
64
ITEM: BOX BOUNDS mm mm mm
-3.2000000000000000e+01 3.2000000000000000e+01
-3.2000000000000000e+01 4.5765413714590693e+01
-3.2000000000000000e+01 3.2000000000000000e+01
ITEM: ATOMS id type x y z
1 1 6.54979 42.949 -4.64996
2 1 6.97171 43.726 -4.36997
3 1 6.40723 44.1151 -3.75382
4 1 6.78473 44.5694 -3.06234
5 1 7.25403 45.3526 -2.88349
6 1 7.4168 45.8215 -2.05606
7 1 6.75218 45.4855 -1.48429
8 1 7.48195 44.8987 -1.35932
9 1 7.3566 44.0212 -1.15553
10 1 6.45736 44.1648 -1.19935
11 1 5.75424 44.1009 -1.79064
12 1 5.58836 43.2263 -1.64489
13 1 5.43113 42.963 -0.666999
14 1 4.76356 42.3676 -0.374533
15 1 3.86581 42.3803 -0.0569485
16 1 2.95892 42.3062 -0.265467
17 1 2.27262 42.9755 -0.232357
18 1 1.97268 43.7824 -0.0267167
19 1 1.08362 43.6829 -0.225234
20 1 1.1728 42.7859 -0.399759
21 1 1.53434 42.1131 0.0993649
22 1 1.88103 42.0605 -0.808967
23 1 1.47669 41.9648 -1.69549
24 1 1.02764 41.5443 -2.42811
25 1 1.56405 41.981 -3.01161
26 1 1.86021 41.3998 -3.66505
27 1 1.50266 41.012 -4.39676
28 1 1.52274 40.1661 -4.82172
29 1 1.68538 39.4901 -5.42706
30 1 2.36313 38.8033 -5.34858
31 1 3.18541 38.4912 -5.72531
32 1 3.58194 38.3828 -6.54979
33 1 3.90769 38.5307 -7.3948
34 1 4.32079 38.2552 -8.25598
35 1 4.56433 38.9894 -8.88704
36 1 5.20268 38.9907 -9.51486
37 1 5.44505 39.4468 -10.2912
38 1 5.87949 38.7472 -10.7385
39 1 6.16197 38.0505 -10.274
40 1 5.69353 37.2889 -10.6395
41 1 5.46748 36.3981 -11.0008
42 1 4.92936 36.3648 -11.7242
43 1 4.5816 35.6586 -12.2274
44 1 4.26596 34.8401 -11.914
45 1 3.96679 33.9404 -11.7174
46 1 3.84835 33.9924 -10.814
47 1 3.21258 34.175 -10.1964
48 1 3.64409 34.6615 -9.60156
49 1 4.50902 34.511 -9.41796
50 1 4.80005 33.9765 -8.71078
51 1 4.61299 33.1972 -8.27453
52 1 3.69549 33.4474 -8.39357
53 1 2.8688 33.4083 -8.90669
54 1 1.9906 33.1667 -9.08763
55 1 1.11638 32.9768 -9.23854
56 1 0.892108 32.1148 -9.01506
57 1 1.10334 31.3391 -9.52538
58 1 1.14076 30.3968 -9.49763
59 1 0.869083 29.7867 -10.1304
60 1 0.17825 30.3498 -9.98139
61 1 -0.113371 31.2181 -10.2411
62 1 -0.997853 31.5048 -10.3489
63 1 -1.59585 32.0373 -9.89059
64 1 -1.01717 31.9919 -9.15931
ITEM: TIMESTEP
2240000
ITEM: NUMBER OF ATOMS
64
ITEM: BOX BOUNDS mm mm mm
-3.2000000000000000e+01 3.2000000000000000e+01
-3.2000000000000000e+01 5.1237642457523201e+01
-3.2000000000000000e+01 3.2000000000000000e+01
ITEM: ATOMS id type x y z
1 1 8.6135 48.7418 -0.706029
2 1 7.80531 48.4204 -1.10184
3 1 7.08784 48.1882 -1.75288
4 1 6.25738 47.7703 -1.91951
5 1 5.69461 48.4922 -2.20342
6 1 5.36527 49.0942 -1.55651
7 1 4.58982 48.6841 -1.93459
8 1 3.70199 48.6327 -1.7481
9 1 3.76724 48.4187 -2.68549
10 1 4.04827 49.1927 -3.07383
11 1 4.45015 49.784 -2.46884
12 1 4.76174 50.6237 -2.76724
13 1 5.13539 51.1418 -3.46977
14 1 5.62882 50.4187 -4.05625
15 1 4.99198 49.7289 -4.31516
16 1 4.12471 49.498 -4.05332
17 1 4.1495 48.5555 -4.26071
18 1 3.87927 48.5398 -5.2058
19 1 4.11017 47.6457 -4.91412
20 1 3.74715 47.09 -4.21898
21 1 3.88742 46.2147 -4.34042
22 1 4.3386 45.4858 -4.00049
23 1 5.17542 45.2893 -3.59904
24 1 5.82542 44.9875 -4.18977
25 1 6.05882 44.0461 -4.22234
26 1 5.7976 43.5251 -4.99339
27 1 4.95009 43.7016 -4.71092
28 1 4.26246 43.7787 -5.32236
29 1 4.45254 42.8834 -5.61661
30 1 3.86526 42.1541 -5.49973
31 1 3.11924 42.7112 -5.40942
32 1 3.2039 43.2804 -6.15175
33 1 3.12267 42.8001 -6.9704
34 1 2.39332 43.1042 -7.52595
35 1 1.66197 42.7555 -7.98342
36 1 0.937167 42.3326 -7.60861
37 1 1.10808 41.5044 -7.16677
38 1 1.65766 40.9142 -7.69616
39 1 2.13929 41.7017 -7.71241
40 1 1.79692 41.4732 -8.57595
41 1 1.65635 40.5187 -8.93649
42 1 2.04364 40.2819 -9.71677
43 1 1.66171 39.9061 -10.4518
44 1 2.32457 39.2487 -10.3454
45 1 2.9168 38.5853 -10.4034
46 1 3.7267 38.3822 -9.94626
47 1 3.91322 38.2265 -8.9537
48 1 4.21293 37.4573 -9.49356
49 1 4.56567 36.6445 -9.79824
50 1 5.04907 35.8725 -10.0961
51 1 5.05433 35.2031 -9.43628
52 1 4.83133 34.2285 -9.52497
53 1 5.46257 34.0688 -8.85051
54 1 5.47097 33.6887 -7.95328
55 1 5.38746 33.3791 -7.07242
56 1 4.92278 32.8568 -6.36997
57 1 4.98461 32.0702 -6.90187
58 1 5.51742 31.6251 -7.62034
59 1 6.0647 31.606 -8.37743
60 1 5.77719 32.1385 -9.11822
61 1 5.30787 31.3838 -9.49448
62 1 5.89116 30.8797 -10.1409
63 1 5.90176 29.9883 -9.92124
64 1 5.63086 29.2424 -10.4419
ITEM: TIMESTEP
2250000
ITEM: NUMBER OF ATOMS
64
ITEM: BOX BOUNDS mm mm mm
-3.2000000000000000e+01 3.2000000000000000e+01
-3.2000000000000000e+01 5.0103672212813727e+01
-3.2000000000000000e+01 3.2000000000000000e+01
ITEM: ATOMS id type x y z
1 1 7.81879 48.9231 -3.92562
2 1 8.16697 49.7613 -3.76771
3 1 8.50292 49.9467 -2.9147
4 1 9.32343 49.9354 -3.4182
5 1 9.8782 50.135 -2.68918
6 1 9.52729 50.006 -1.83542
7 1 8.68391 49.7449 -1.47858
8 1 7.91467 49.2734 -1.75731
9 1 8.02846 48.7007 -1.03897
10 1 7.95247 47.872 -1.53529
11 1 7.08983 47.9943 -1.95036
12 1 6.6381 48.7675 -1.6614
13 1 5.80923 48.5135 -1.30409
14 1 5.14584 47.8069 -1.13677
15 1 4.471 47.9159 -1.77393
16 1 4.1073 47.4887 -2.55015
17 1 4.41156 46.8624 -3.14547
18 1 3.98707 46.0408 -3.24126
19 1 4.3735 45.6005 -2.5001
20 1 4.03475 45.1033 -1.73986
21 1 3.39174 44.5962 -1.29673
22 1 3.5951 43.7648 -0.931586
23 1 2.95623 43.1424 -1.22863
24 1 3.11377 42.2371 -1.53502
25 1 3.4099 41.3467 -1.4378
26 1 3.25963 40.5218 -1.89394
27 1 3.99728 40.1872 -2.30336
28 1 4.72413 39.7472 -2.61578
29 1 4.32598 38.8478 -2.69399
30 1 3.67709 38.271 -3.06835
31 1 2.89647 38.6882 -3.53187
32 1 3.61485 39.0609 -4.06247
33 1 3.61509 39.4405 -4.87932
34 1 3.17717 39.5531 -5.65368
35 1 3.50641 39.4268 -6.55021
36 1 3.85273 39.0245 -7.31792
37 1 3.92032 39.5781 -8.08636
38 1 3.15431 39.4018 -8.63124
39 1 2.527 38.7094 -8.5379
40 1 1.97885 39.0163 -9.19981
41 1 1.93531 39.5022 -10.0903
42 1 2.29298 39.2181 -10.8797
43 1 2.7691 38.6709 -11.5182
44 1 3.03425 37.7665 -11.3204
45 1 2.52756 37.8919 -10.5531
46 1 2.34558 38.0318 -9.6611
47 1 1.49616 37.9383 -9.36102
48 1 1.20171 37.2882 -8.67917
49 1 1.9632 36.7185 -8.72201
50 1 2.25324 36.8853 -7.82831
51 1 2.2692 36.2127 -7.10123
52 1 2.0794 35.5099 -6.52261
53 1 2.60789 35.2755 -5.82158
54 1 2.22827 34.6475 -5.21939
55 1 2.21139 33.663 -5.29846
56 1 2.02011 32.9573 -5.89806
57 1 1.45181 33.0664 -6.65638
58 1 1.90703 32.3157 -6.99817
59 1 1.73773 31.9823 -7.94261
60 1 1.69594 31.289 -8.59167
61 1 1.48488 30.8184 -9.34448
62 1 1.89366 30.6011 -10.1705
63 1 1.1099 30.3418 -10.6058
64 1 1.72941 30.6894 -11.26
ITEM: TIMESTEP
2260000
ITEM: NUMBER OF ATOMS
64
ITEM: BOX BOUNDS mm mm mm
-3.2000000000000000e+01 3.2000000000000000e+01
-3.2000000000000000e+01 5.1348380950492299e+01
-3.2000000000000000e+01 3.2000000000000000e+01
ITEM: ATOMS id type x y z
1 1 12.0071 50.1455 -6.62974
2 1 11.7587 50.8302 -7.17561
3 1 11.1125 50.9999 -7.83402
4 1 10.4918 51.697 -8.01878
5 1 9.78624 51.0643 -8.0244
6 1 9.12665 50.5325 -7.66213
7 1 8.8196 49.9206 -8.33796
8 1 9.06761 50.8171 -8.67526
9 1 8.21775 51.1023 -8.49654
10 1 7.63721 50.8896 -7.68261
11 1 6.75075 50.5319 -7.67701
12 1 6.4601 49.5777 -7.59561
13 1 6.04064 49.1229 -6.88404
14 1 5.2175 48.5979 -6.90657
15 1 4.30251 48.3104 -7.05051
16 1 3.60771 48.5054 -6.47682
17 1 3.34342 47.632 -6.36657
18 1 3.77493 46.8537 -6.09692
19 1 4.25841 46.7726 -5.27746
20 1 4.26144 47.5384 -4.74098
21 1 4.50162 48.4414 -4.84925
22 1 3.801 48.8258 -4.34303
23 1 4.53579 48.7238 -3.8384
24 1 5.34151 48.8549 -3.42593
25 1 6.24722 48.6838 -3.69191
26 1 6.56682 47.8287 -3.52051
27 1 6.96677 47.0718 -4.03536
28 1 6.76711 46.143 -4.21797
29 1 6.27957 45.4373 -4.60601
30 1 6.04634 44.4836 -4.81119
31 1 5.12456 44.4494 -5.05953
32 1 4.43674 44.1059 -5.50443
33 1 3.57933 44.0347 -5.96994
34 1 4.13061 43.2595 -5.99941
35 1 3.39262 42.8903 -6.29432
36 1 2.64702 42.5889 -6.78103
37 1 1.76648 42.7854 -7.08934
38 1 0.934408 42.9255 -7.55405
39 1 1.1245 43.0981 -8.47512
40 1 0.323479 42.5467 -8.413
41 1 0.886229 41.8345 -8.69221
42 1 0.57172 40.9012 -8.6341
43 1 1.52127 40.8554 -8.75155
44 1 2.18645 40.2566 -9.06322
45 1 2.55375 39.3931 -8.76362
46 1 3.27369 39.2598 -8.15949
47 1 3.9828 39.4241 -7.56351
48 1 3.9523 38.6871 -6.99319
49 1 4.01845 37.8758 -6.60745
50 1 3.23141 37.4119 -6.70181
51 1 3.11119 36.5076 -6.21726
52 1 2.99782 35.5218 -6.19669
53 1 3.18933 35.9744 -5.38592
54 1 3.62334 35.2891 -4.82709
55 1 2.74893 34.9432 -4.86851
56 1 2.62969 34.8437 -3.96543
57 1 2.62515 35.0943 -2.95611
58 1 1.97768 34.8023 -2.29839
59 1 1.35491 34.9662 -1.58689
60 1 1.49793 35.8208 -1.93452
61 1 1.71286 36.6221 -2.34383
62 1 1.99504 37.5389 -2.28628
63 1 1.57767 37.3121 -3.20033
64 1 1.9603 37.5941 -4.00166
ITEM: TIMESTEP
2270000
ITEM: NUMBER OF ATOMS
64
ITEM: BOX BOUNDS mm mm mm
-3.2000000000000000e+01 3.2000000000000000e+01
-3.2000000000000000e+01 4.8788498104212863e+01
-3.2000000000000000e+01 3.2000000000000000e+01
ITEM: ATOMS id type x y z
1 1 9.78878 46.1234 -3.24599
2 1 9.01738 46.4494 -2.8605
3 1 9.75531 46.9326 -2.59074
4 1 10.7347 46.7441 -2.60599
5 1 11.6263 46.5827 -2.50074
6 1 12.2824 47.0137 -1.92305
7 1 12.2808 47.853 -1.29393
8 1 11.3448 47.9577 -1.45377
9 1 11.5229 48.1073 -2.36112
10 1 11.5444 47.9736 -3.27905
11 1 11.3999 48.3459 -4.10929
12 1 10.5096 48.3562 -4.4157
13 1 9.67749 48.4039 -4.8128
14 1 8.78836 48.3649 -4.44688
15 1 7.93384 48.8382 -4.35908
16 1 7.30623 48.2608 -3.95639
17 1 6.86426 47.5417 -3.44205
18 1 6.78769 47.358 -4.36574
19 1 7.40349 46.8738 -4.79398
20 1 7.00273 46.2897 -5.38258
21 1 6.14771 45.9868 -5.34978
22 1 5.42081 46.5057 -5.21861
23 1 4.81467 47.1566 -4.85835
24 1 3.88022 47.2651 -4.71325
25 1 3.68496 46.4674 -5.19421
26 1 3.00766 46.1889 -5.77356
27 1 2.28943 45.564 -5.82548
28 1 2.00642 44.8355 -6.32028
29 1 1.81903 44.1222 -6.98554
30 1 1.88436 43.5421 -7.67938
31 1 1.64404 44.2332 -8.34376
32 1 1.65811 44.232 -9.29642
33 1 1.37258 43.3235 -9.50094
34 1 1.34791 42.9655 -10.3539
35 1 1.65715 42.0885 -10.1354
36 1 2.48452 41.7043 -10.3871
37 1 3.37955 41.6267 -10.0709
38 1 3.42489 40.931 -10.6985
39 1 3.23307 40.0296 -10.7975
40 1 2.92578 39.1261 -10.615
41 1 2.12157 39.4476 -10.2582
42 1 1.81811 40.0949 -9.71886
43 1 1.55388 40.257 -8.76608
44 1 1.82458 40.4247 -7.86449
45 1 1.91991 39.9224 -7.06473
46 1 1.18403 39.5144 -7.43401
47 1 0.808118 38.7029 -7.29605
48 1 0.147494 38.0094 -7.51632
49 1 -0.613927 37.9211 -8.00792
50 1 -0.574833 37.285 -8.67543
51 1 -0.752144 36.3447 -8.65066
52 1 -0.528391 36.48 -7.72616
53 1 0.0929273 36.3968 -7.08219
54 1 0.894624 35.9258 -6.99236
55 1 1.6901 36.0094 -6.50434
56 1 2.61401 35.708 -6.27958
57 1 3.38062 35.6959 -5.7424
58 1 4.0887 35.8191 -5.13648
59 1 3.4097 35.8239 -4.52656
60 1 2.93417 35.5248 -3.75066
61 1 2.90725 35.1342 -2.85594
62 1 2.32485 34.4425 -3.21209
63 1 2.06775 34.0625 -4.09413
64 1 2.25655 33.2732 -4.59592
ITEM: TIMESTEP
2280000
ITEM: NUMBER OF ATOMS
64
ITEM: BOX BOUNDS mm mm mm
-3.2000000000000000e+01 3.2000000000000000e+01
-3.2000000000000000e+01 4.5437615814118374e+01
-3.2000000000000000e+01 3.2000000000000000e+01
ITEM: ATOMS id type x y z
1 1 7.91257 42.0491 3.75133
2 1 7.42669 42.8265 4.04452
3 1 7.37027 43.3379 3.28017
4 1 7.17382 43.4972 2.41109
5 1 7.88889 43.955 2.00648
6 1 7.8969 43.3973 1.19151
7 1 7.91975 43.6073 0.229435
8 1 7.15812 43.1584 0.0737393
9 1 6.43165 42.9781 -0.462667
10 1 6.07979 43.0114 -1.30642
11 1 5.39611 43.5347 -1.72083
12 1 4.58119 43.9453 -1.87547
13 1 3.78915 44.4865 -1.75673
14 1 4.19009 45.1098 -2.38475
15 1 4.67306 44.6914 -3.11726
16 1 4.95144 44.1331 -3.78241
17 1 5.63625 44.7185 -4.21386
18 1 5.71486 45.3983 -4.86696
19 1 6.11896 44.8546 -5.4692
20 1 6.41786 44.0115 -5.28236
21 1 5.79857 43.3969 -4.9308
22 1 4.96618 42.9671 -4.97961
23 1 5.02155 43.4209 -5.85553
24 1 5.44711 43.8922 -6.51592
25 1 5.51885 43.748 -7.43632
26 1 6.32927 43.2158 -7.57034
27 1 7.11792 42.666 -7.77048
28 1 7.95476 42.3171 -8.10167
29 1 8.63103 42.0772 -8.71238
30 1 8.9665 42.0924 -9.64618
31 1 8.74727 42.185 -10.5933
32 1 8.65349 42.6388 -11.4378
33 1 8.73295 42.0943 -12.2336
34 1 7.96411 42.3354 -12.7776
35 1 7.2192 41.8019 -12.8071
36 1 6.38161 42.1749 -13.0858
37 1 5.7796 42.6126 -12.4256
38 1 4.86814 42.6249 -12.308
39 1 4.00384 42.926 -12.0687
40 1 3.57135 42.9868 -11.2084
41 1 3.9851 43.8074 -11.194
42 1 4.62389 43.1651 -10.8295
43 1 5.06544 42.3498 -10.6042
44 1 5.43159 41.7078 -10.0544
45 1 5.9985 41.2107 -9.44346
46 1 5.57925 41.0085 -8.65018
47 1 5.56091 40.1412 -8.29834
48 1 4.89063 39.6274 -8.65248
49 1 4.75014 38.7122 -8.45389
50 1 3.97804 38.1402 -8.56304
51 1 3.2572 38.5945 -8.99805
52 1 3.33244 39.3018 -9.55632
53 1 2.69412 39.8947 -9.19162
54 1 1.78604 40.1593 -9.25992
55 1 1.14739 39.668 -8.78753
56 1 0.248179 39.4649 -8.4433
57 1 0.441686 39.5372 -7.51607
58 1 0.921202 40.3322 -7.64962
59 1 0.656767 41.1682 -7.20396
60 1 1.28089 41.5438 -6.58731
61 1 1.49206 41.9941 -5.8117
62 1 1.17076 42.804 -6.23146
63 1 1.84242 42.7715 -6.86825
64 1 1.2045 43.1554 -7.49203
ITEM: TIMESTEP
2290000
ITEM: NUMBER OF ATOMS
64
ITEM: BOX BOUNDS mm mm mm
-3.2000000000000000e+01 3.2000000000000000e+01
-3.2000000000000000e+01 4.4006357126867080e+01
-3.2000000000000000e+01 3.2000000000000000e+01
ITEM: ATOMS id type x y z
1 1 11.4334 34.5417 -3.75815
2 1 11.8089 35.3414 -4.23436
3 1 11.6151 36.1312 -4.73639
4 1 11.7946 36.8899 -5.3474
5 1 11.0142 37.3168 -5.68805
6 1 10.289 37.885 -5.76228
7 1 9.51019 38.1902 -5.4211
8 1 9.74466 39.0916 -5.14878
9 1 9.21751 39.4053 -4.4652
10 1 9.34887 40.0108 -3.80328
11 1 9.81609 40.0112 -2.99077
12 1 10.5218 39.8436 -2.38648
13 1 11.3263 39.8012 -1.94236
14 1 11.7668 40.1157 -2.72645
15 1 11.9933 40.6836 -3.47851
16 1 11.6335 41.4613 -3.74638
17 1 12.0729 41.2816 -4.55631
18 1 12.9203 41.3153 -4.97742
19 1 12.5463 41.1832 -5.83519
20 1 12.184 41.3542 -6.72499
21 1 12.8091 40.7755 -7.06047
22 1 12.1405 40.5299 -7.68903
23 1 11.7936 41.2141 -8.27405
24 1 11.1329 41.582 -8.83731
25 1 10.6626 40.9337 -8.32586
26 1 10.1583 40.569 -7.58718
27 1 9.6959 41.2361 -7.13925
28 1 8.79318 41.4128 -6.9476
29 1 8.427 42.0328 -7.53848
30 1 8.25502 42.5263 -8.32151
31 1 8.49677 42.8108 -9.18199
32 1 8.77478 43.6307 -9.53481
33 1 7.87973 43.7084 -9.28492
34 1 7.05456 44.0332 -8.82317
35 1 6.56019 43.2968 -9.16748
36 1 6.86006 42.4107 -9.15852
37 1 6.66654 41.5484 -9.58202
38 1 5.95671 41.0104 -9.20358
39 1 5.33878 40.6928 -9.87408
40 1 4.70334 40.0432 -10.0486
41 1 4.09183 39.298 -9.90696
42 1 3.54097 38.5994 -9.67388
43 1 2.65518 38.9978 -9.65224
44 1 1.92616 38.4105 -9.49004
45 1 2.59576 37.7502 -9.36494
46 1 3.49665 37.4802 -9.38648
47 1 3.52092 36.7007 -8.84765
48 1 4.08615 36.6234 -9.54037
49 1 4.78318 37.2596 -9.7166
50 1 5.53858 37.105 -9.14901
51 1 5.97359 37.0847 -8.3225
52 1 6.00759 36.6481 -7.54783
53 1 5.84364 35.9655 -6.96372
54 1 5.67319 35.0235 -6.94023
55 1 6.40114 34.7439 -6.46887
56 1 6.7558 35.0421 -5.62116
57 1 6.98098 35.1785 -4.71206
58 1 6.71596 35.303 -3.81405
59 1 7.14149 35.0086 -2.98378
60 1 6.4253 34.379 -3.03896
61 1 6.4045 33.4299 -3.2641
62 1 6.65505 32.5268 -3.22973
63 1 6.50872 31.7489 -3.72122
64 1 6.77412 30.8436 -3.52674
ITEM: TIMESTEP
2300000
ITEM: NUMBER OF ATOMS
64
ITEM: BOX BOUNDS mm mm mm
-3.2000000000000000e+01 3.2000000000000000e+01
-3.2000000000000000e+01 4.3185793504223447e+01
-3.2000000000000000e+01 3.2000000000000000e+01
ITEM: ATOMS id type x y z
1 1 7.04021 38.0311 -3.03715
2 1 6.66548 38.8783 -2.95106
3 1 6.30453 39.4295 -2.34068
4 1 5.74179 39.5371 -1.61331
5 1 5.25711 39.7081 -0.834687
6 1 5.44979 39.2643 -0.0325444
7 1 6.12934 39.8527 0.0774307
8 1 6.99724 40.0886 0.081315
9 1 7.65491 39.546 0.484324
10 1 8.13455 39.6047 1.27968
11 1 8.50706 40.1846 0.625066
12 1 8.42089 41.1164 0.477305
13 1 7.79803 41.8337 0.495549
14 1 7.46796 42.658 0.812553
15 1 6.86484 43.0834 1.4073
16 1 7.23945 42.842 2.23056
17 1 8.06457 42.39 2.37728
18 1 8.63058 41.8871 1.87223
19 1 8.97405 41.855 1.00025
20 1 9.87924 41.6248 0.798014
21 1 10.7244 41.7236 1.18714
22 1 11.6721 41.9471 1.07862
23 1 12.1899 41.6457 0.397624
24 1 12.4204 41.0441 -0.244036
25 1 13.3029 40.7637 -0.240865
26 1 13.3619 41.4514 -0.851251
27 1 13.4108 42.3659 -0.692601
28 1 13.8322 42.3042 -1.56341
29 1 13.8468 41.5472 -2.1264
30 1 14.0295 40.907 -2.83625
31 1 14.6319 41.1769 -3.54937
32 1 14.364 40.2562 -3.67701
33 1 13.4089 40.0132 -3.72992
34 1 12.7425 39.5424 -4.28047
35 1 12.5217 40.0283 -5.09065
36 1 12.0427 39.8034 -5.85668
37 1 11.8659 39.3483 -6.66195
38 1 11.3636 40.1292 -6.65777
39 1 11.2536 41.0468 -6.75014
40 1 10.4146 40.6929 -6.93943
41 1 10.1106 40.7343 -7.8119
42 1 10.329 41.2035 -8.56659
43 1 10.039 40.3474 -8.92396
44 1 9.75044 39.6014 -9.40077
45 1 9.63905 39.109 -8.48554
46 1 9.18833 38.5183 -7.95233
47 1 9.35966 37.6379 -7.75506
48 1 9.09345 36.7547 -7.79973
49 1 8.15805 36.6329 -7.73907
50 1 7.6004 37.373 -7.65396
51 1 7.15337 37.7624 -6.88936
52 1 7.34687 37.5678 -6.00952
53 1 6.62643 37.5308 -5.41141
54 1 6.51004 36.6774 -5.07046
55 1 6.09687 35.8194 -4.8432
56 1 5.42378 35.1788 -4.97501
57 1 4.76432 34.8918 -4.41636
58 1 4.17478 34.3559 -4.8816
59 1 3.3625 34.2731 -4.45072
60 1 2.99221 33.9043 -3.72332
61 1 2.44105 33.217 -3.9155
62 1 2.18103 32.6944 -3.13772
63 1 1.54123 32.0691 -3.29884
64 1 0.943944 31.7469 -2.65469
ITEM: TIMESTEP
2310000
ITEM: NUMBER OF ATOMS
64
ITEM: BOX BOUNDS mm mm mm
-3.2000000000000000e+01 3.2000000000000000e+01
-3.2000000000000000e+01 4.3897227812512632e+01
-3.2000000000000000e+01 3.2000000000000000e+01
ITEM: ATOMS id type x y z
1 1 11.3579 41.5378 1.06483
2 1 12.2606 41.2393 1.13591
3 1 12.5306 42.0605 1.64111
4 1 13.1593 41.6873 2.18195
5 1 12.9966 41.6584 3.13809
6 1 12.1259 41.4586 3.43537
7 1 11.8744 40.8184 2.86552
8 1 11.472 40.227 2.15179
9 1 10.9064 40.3047 1.40198
10 1 10.2802 40.4105 0.644533
11 1 10.0057 40.6217 -0.215637
12 1 10.8464 40.9389 -0.440949
13 1 11.1699 40.3048 -1.06859
14 1 10.3218 39.987 -1.2609
15 1 9.48416 39.7883 -1.51446
16 1 9.12135 40.6253 -1.70737
17 1 8.92078 41.1815 -0.974175
18 1 8.28998 41.8177 -0.658201
19 1 8.38011 42.6863 -0.9347
20 1 8.88327 42.5558 -1.67766
21 1 9.56872 43.0236 -2.0795
22 1 10.0143 43.8084 -2.20415
23 1 10.3633 43.3058 -2.91889
24 1 11.2615 43.4691 -2.66317
25 1 11.9287 42.8203 -2.45394
26 1 11.9782 41.9167 -2.42724
27 1 11.9736 41.0891 -2.90286
28 1 11.2961 40.5685 -3.19041
29 1 10.7415 39.8376 -3.16041
30 1 10.4652 39.8351 -2.24851
31 1 11.1596 39.2768 -1.91199
32 1 11.8429 39.4199 -1.24306
33 1 12.2478 38.7237 -0.773565
34 1 12.2875 38.4361 0.0718471
35 1 13.1066 38.4733 0.467917
36 1 13.4965 37.6332 0.231132
37 1 13.2747 36.7062 0.46595
38 1 13.2281 35.8536 -0.026833
39 1 12.7116 35.0741 -0.356278
40 1 12.5717 34.3591 -0.901617
41 1 12.6334 33.9097 -1.77561
42 1 12.8581 33.8764 -2.68694
43 1 13.4456 33.8586 -3.38804
44 1 13.0452 34.4307 -4.13166
45 1 12.6298 34.4434 -4.95084
46 1 12.2867 35.3909 -4.95704
47 1 12.5094 36.3234 -4.86096
48 1 11.6627 36.7228 -5.01139
49 1 11.0781 37.2848 -5.55172
50 1 10.3382 37.8936 -5.78129
51 1 9.67006 37.5932 -6.37488
52 1 9.47211 36.8707 -6.91477
53 1 9.50011 36.7181 -7.86896
54 1 10.3649 37.0111 -8.00854
55 1 10.9523 36.3092 -8.30957
56 1 10.7654 36.5792 -9.20655
57 1 10.091 36.964 -9.75164
58 1 9.35328 36.9224 -10.2784
59 1 8.8659 37.6968 -9.98494
60 1 9.03542 38.5327 -10.2864
61 1 8.6598 39.3849 -10.0677
62 1 8.38437 39.1929 -9.19677
63 1 8.99432 39.079 -8.47562
64 1 9.8614 38.7083 -8.23415
ITEM: TIMESTEP
2320000
ITEM: NUMBER OF ATOMS
64
ITEM: BOX BOUNDS mm mm mm
-3.2000000000000000e+01 3.2000000000000000e+01
-3.2000000000000000e+01 4.5805054544166317e+01
-3.2000000000000000e+01 3.2000000000000000e+01
ITEM: ATOMS id type x y z
1 1 13.6169 44.3621 2.41631
2 1 13.8059 44.17 1.51848
3 1 14.6749 43.877 1.30369
4 1 14.7443 43.1258 0.709929
5 1 14.7841 42.2569 0.304337
6 1 15.0921 42.6974 -0.43738
7 1 15.6273 43.3178 -0.938883
8 1 16.1362 43.7651 -1.62531
9 1 15.6644 44.4421 -1.12503
10 1 14.8206 44.8149 -0.799614
11 1 14.1509 44.1249 -0.923255
12 1 13.7497 44.7177 -1.53616
13 1 13.1759 45.4123 -1.73939
14 1 13.7857 45.7687 -2.38886
15 1 13.6814 45.5181 -3.30296
16 1 14.3739 44.8694 -3.24977
17 1 13.7146 44.36 -2.8823
18 1 13.6977 43.8856 -3.72186
19 1 12.8081 43.9697 -3.99783
20 1 12.3345 43.4755 -4.60715
21 1 11.5921 43.5067 -5.1292
22 1 11.2849 43.5486 -6.00963
23 1 10.882 42.7421 -6.24683
24 1 10.5205 42.7108 -5.3822
25 1 10.942 42.096 -4.72042
26 1 10.9868 41.7816 -3.79783
27 1 11.1269 40.9536 -4.38798
28 1 10.8572 40.098 -4.34355
29 1 9.96332 40.3546 -4.33674
30 1 9.80366 40.4411 -3.39087
31 1 10.6688 40.0232 -3.30647
32 1 11.5673 39.9718 -3.51282
33 1 12.4013 39.7526 -3.26053
34 1 13.0812 39.1351 -3.00859
35 1 13.3993 38.2609 -2.80695
36 1 14.0233 37.9469 -2.2148
37 1 14.7766 38.4582 -2.47714
38 1 15.39 37.8856 -2.10514
39 1 15.5924 36.9791 -2.00424
40 1 16.1505 36.4858 -2.54166
41 1 15.9944 35.7972 -3.06992
42 1 16.7643 35.5955 -3.59871
43 1 17.0576 36.0393 -4.36036
44 1 16.8792 36.5092 -5.15908
45 1 16.5289 37.0788 -5.80981
46 1 16.0026 37.7868 -5.43197
47 1 15.8819 37.4792 -4.51646
48 1 15.9154 38.4236 -4.46774
49 1 15.3357 38.9755 -4.91282
50 1 14.8836 39.1818 -5.65593
51 1 13.9396 39.2941 -5.3058
52 1 13.5302 38.9681 -6.11272
53 1 12.9246 38.3096 -5.97214
54 1 12.7192 37.4381 -6.22302
55 1 12.6531 36.7786 -6.93427
56 1 13.1474 36.8888 -7.7702
57 1 14.0376 37.0687 -7.92167
58 1 13.9193 38.0347 -8.17643
59 1 13.6944 38.2633 -9.01708
60 1 12.8247 38.656 -8.98242
61 1 12.0117 38.3164 -9.33556
62 1 11.305 38.3817 -8.72365
63 1 10.3319 38.455 -8.78319
64 1 9.74164 38.6093 -9.51688
ITEM: TIMESTEP
2330000
ITEM: NUMBER OF ATOMS
64
ITEM: BOX BOUNDS mm mm mm
-3.2000000000000000e+01 3.2000000000000000e+01
-3.2000000000000000e+01 4.3760338035217160e+01
-3.2000000000000000e+01 3.2000000000000000e+01
ITEM: ATOMS id type x y z
1 1 13.9086 39.2335 -2.7894
2 1 14.0365 39.7093 -1.97029
3 1 13.1152 39.5954 -1.87747
4 1 12.1731 39.683 -1.90326
5 1 11.2907 40.1435 -2.08881
6 1 11.4452 40.9889 -2.35014
7 1 11.1109 41.6895 -2.80146
8 1 11.9822 41.5156 -3.10129
9 1 12.8596 41.7168 -2.85317
10 1 13.6904 41.8949 -3.27455
11 1 14.0759 42.7082 -2.94399
12 1 14.5113 43.4327 -2.434
13 1 14.6349 43.1496 -1.58056
14 1 13.8957 43.6016 -1.30321
15 1 13.0681 43.28 -1.49695
16 1 12.5712 42.6397 -2.03029
17 1 12.9066 43.3385 -2.53549
18 1 12.4057 43.7244 -3.17268
19 1 12.4287 43.7149 -4.075
20 1 12.3173 42.8965 -4.58233
21 1 13.0645 42.4426 -4.36779
22 1 13.2299 41.5534 -4.44383
23 1 13.9992 41.2941 -4.95478
24 1 13.7675 41.202 -5.84851
25 1 13.5725 40.2844 -6.05948
26 1 13.8192 39.7217 -6.7533
27 1 14.0684 39.01 -7.28992
28 1 13.9887 38.1187 -7.01427
29 1 13.8355 37.2301 -7.06675
30 1 14.4819 36.8624 -6.48109
31 1 14.1187 36.3581 -5.7875
32 1 13.4694 35.7196 -6.07152
33 1 12.581 35.9427 -5.90174
34 1 12.0185 36.3631 -6.54099
35 1 11.5314 37.0591 -6.86325
36 1 12.0437 37.6439 -6.28649
37 1 12.18 37.6669 -5.33299
38 1 12.3873 37.5441 -4.40947
39 1 13.1807 37.1288 -4.00761
40 1 14.0189 37.3731 -4.31544
41 1 14.4373 37.5175 -3.49602
42 1 15.3149 37.4011 -3.18068
43 1 15.4214 36.9346 -4.0184
44 1 15.2318 37.3263 -4.85237
45 1 15.5241 37.409 -5.74991
46 1 15.9834 37.4083 -6.5678
47 1 15.5571 37.106 -7.30729
48 1 15.9203 37.9746 -7.39501
49 1 16.6143 38.4571 -7.75726
50 1 16.8576 38.8144 -8.62127
51 1 16.9023 38.9964 -9.51414
52 1 16.8411 39.7811 -9.95873
53 1 16.9925 40.6608 -10.2127
54 1 17.6312 40.7808 -10.908
55 1 17.3642 40.853 -11.7972
56 1 17.1725 40.0292 -12.209
57 1 16.2542 40.0415 -12.3678
58 1 16.2666 40.4726 -13.2512
59 1 15.4622 40.0068 -13.1712
60 1 15.1775 40.8798 -13.4149
61 1 15.0615 41.2187 -14.2721
62 1 14.6407 40.4367 -14.4002
63 1 13.9084 39.9109 -14.7229
64 1 13.6594 39.019 -14.6306
ITEM: TIMESTEP
2340000
ITEM: NUMBER OF ATOMS
64
ITEM: BOX BOUNDS mm mm mm
-3.2000000000000000e+01 3.2000000000000000e+01