ITEM: TIMESTEP
2220000
ITEM: NUMBER OF ATOMS
64
ITEM: BOX BOUNDS mm mm mm
-3.2000000000000000e+01 3.2000000000000000e+01
-3.2000000000000000e+01 3.7349272495519720e+01
-3.2000000000000000e+01 3.2000000000000000e+01
ITEM: ATOMS id type x y z
1 1 4.03381 37.3423 8.29017
2 1 4.4712 36.6871 7.75333
3 1 4.66864 35.8 7.44509
4 1 5.08064 34.9378 7.572
5 1 5.71716 34.2428 7.61469
6 1 5.56852 33.7956 8.39525
7 1 5.91315 33.039 8.7272
8 1 5.4088 32.2888 8.91688
9 1 5.27563 31.4016 8.56302
10 1 5.09367 30.5577 8.06631
11 1 5.12679 30.4434 7.16375
12 1 5.39592 31.3021 6.99216
13 1 6.04969 31.9749 6.94317
14 1 6.86087 32.3432 7.28675
15 1 7.61376 32.8609 7.54675
16 1 8.33442 32.5727 7.0716
17 1 9.24256 32.7798 6.77497
18 1 9.79704 32.3791 6.07458
19 1 9.78499 32.4294 5.1058
20 1 10.4422 31.9096 4.67233
21 1 11.2595 31.4926 4.38334
22 1 11.5462 30.9251 3.6441
23 1 11.3361 30.8548 2.68935
24 1 10.8265 30.2907 2.11241
25 1 10.4166 29.8466 1.42249
26 1 10.1183 29.2304 0.710979
27 1 9.6337 29.2931 -0.146441
28 1 9.03034 29.0039 -0.801841
29 1 8.2312 28.9167 -1.27236
30 1 7.76694 29.3344 -2.02286
31 1 7.75124 30.1276 -2.46486
32 1 7.31201 30.79 -3.01546
33 1 7.29464 30.8618 -3.91714
34 1 7.56444 30.9483 -4.82661
35 1 7.95232 30.8823 -5.69437
36 1 8.3558 30.1874 -6.14054
37 1 9.14854 30.2955 -6.66728
38 1 9.35677 30.4539 -7.53366
39 1 9.428 30.9839 -8.27864
40 1 8.85469 31.5331 -8.80514
41 1 8.02321 31.8259 -9.16137
42 1 7.57233 32.636 -9.29666
43 1 7.41818 33.534 -9.03216
44 1 6.68282 33.6224 -8.42985
45 1 6.54536 34.5236 -8.06561
46 1 7.1517 35.1686 -8.39488
47 1 7.67728 35.0811 -9.15894
48 1 8.3588 34.4492 -9.16398
49 1 8.75767 33.8138 -9.74447
50 1 8.66831 33.0412 -10.2878
51 1 8.63489 32.1741 -10.6678
52 1 8.51162 31.2561 -11.0192
53 1 8.65161 30.5517 -11.6807
54 1 8.75435 29.8509 -12.298
55 1 8.44095 29.0309 -12.5939
56 1 7.64074 28.5618 -12.7918
57 1 6.80156 28.0833 -12.6692
58 1 6.26519 27.3488 -12.4509
59 1 6.17835 26.4444 -12.7264
60 1 6.74935 25.7545 -12.9646
61 1 7.28237 25.098 -12.4894
62 1 7.70712 24.2481 -12.3497
63 1 7.03794 23.6094 -12.2739
64 1 6.72221 22.7428 -12.1621
ITEM: TIMESTEP
2230000
ITEM: NUMBER OF ATOMS
64
ITEM: BOX BOUNDS mm mm mm
-3.2000000000000000e+01 3.2000000000000000e+01
-3.2000000000000000e+01 3.6053637734586509e+01
-3.2000000000000000e+01 3.2000000000000000e+01
ITEM: ATOMS id type x y z
1 1 15.093 36.0445 4.32295
2 1 14.67 35.4479 4.88651
3 1 14.171 35.0229 5.48847
4 1 13.7021 34.9624 6.28194
5 1 13.0156 34.3562 6.19183
6 1 12.6039 33.4926 6.00986
7 1 11.9318 32.8704 6.00725
8 1 11.4237 32.3139 6.58575
9 1 10.8567 31.5924 6.61425
10 1 10.2321 30.9521 6.72665
11 1 9.74676 30.2382 7.15302
12 1 9.51542 29.3617 7.33141
13 1 10.0279 28.7527 6.79847
14 1 10.5633 28.1094 6.29853
15 1 10.8493 27.2037 6.23992
16 1 10.4352 26.3302 6.13686
17 1 9.72786 25.8602 5.72859
18 1 9.52174 25.136 5.12508
19 1 9.16689 24.3902 4.6614
20 1 8.71854 24.0183 3.91369
21 1 8.89366 24.1879 2.9996
22 1 8.34209 23.9986 2.26906
23 1 7.81843 23.3061 1.88872
24 1 6.92363 23.6879 1.61049
25 1 6.09482 23.3255 1.34539
26 1 5.30348 23.5539 0.858038
27 1 5.03876 23.7743 0.0324425
28 1 4.83081 24.6079 -0.280094
29 1 5.13705 25.0699 -1.04552
30 1 5.7531 25.2703 -1.79212
31 1 6.56371 25.3977 -2.30722
32 1 7.41807 25.4425 -2.64797
33 1 7.90326 25.168 -3.4696
34 1 8.19053 25.9242 -4.06414
35 1 8.98724 25.8496 -4.53028
36 1 9.28536 25.9203 -5.39275
37 1 9.93397 26.5932 -5.55771
38 1 10.5469 27.0202 -6.09207
39 1 11.4174 27.4029 -6.14798
40 1 12.0841 27.8789 -6.59183
41 1 12.5378 28.2461 -7.34464
42 1 12.5638 28.4811 -8.24777
43 1 12.4382 29.2837 -8.83198
44 1 12.4922 29.5267 -9.81241
45 1 12.444 29.6954 -10.8172
46 1 12.35 29.7229 -11.7727
47 1 11.9718 30.0184 -12.6234
48 1 12.0396 30.4007 -13.4813
49 1 12.2732 31.2329 -13.8518
50 1 13.0968 31.1942 -14.4239
51 1 14.0015 30.9061 -14.405
52 1 14.6287 30.2634 -14.8573
53 1 15.5037 30.1544 -15.1882
54 1 16.1848 29.7429 -15.7556
55 1 17.0099 29.3975 -16.0368
56 1 17.8113 29.3545 -16.5379
57 1 18.6416 29.4583 -16.9036
58 1 19.2945 29.3568 -17.5776
59 1 20.1192 29.0354 -17.8932
60 1 20.7888 28.6905 -18.501
61 1 20.4367 28.4622 -19.3955
62 1 19.9426 27.7665 -19.786
63 1 19.8291 26.8044 -19.906
64 1 19.4305 25.9781 -19.6349
ITEM: TIMESTEP
2240000
ITEM: NUMBER OF ATOMS
64
ITEM: BOX BOUNDS mm mm mm
-3.2000000000000000e+01 3.2000000000000000e+01
-3.2000000000000000e+01 3.3350048184636861e+01
-3.2000000000000000e+01 3.2000000000000000e+01
ITEM: ATOMS id type x y z
1 1 9.29317 27.855 12.5104
2 1 10.1555 28.0527 12.2697
3 1 10.9557 28.2702 12.7512
4 1 11.2894 28.7764 12.0248
5 1 11.1184 29.5673 11.5781
6 1 10.9082 30.3024 10.9937
7 1 11.2516 31.179 10.9938
8 1 11.3138 31.7611 10.2465
9 1 11.0993 31.6143 9.34354
10 1 11.1353 31.4126 8.43444
11 1 10.6461 31.035 7.71474
12 1 10.9606 30.4173 7.02198
13 1 10.7962 30.5908 6.09032
14 1 10.7086 30.0663 5.3373
15 1 10.9133 29.3738 4.75011
16 1 11.5084 28.8692 4.31593
17 1 11.7878 28.6064 3.42368
18 1 11.5998 27.8073 2.92632
19 1 11.1645 27.689 2.07543
20 1 10.4817 27.4717 1.43303
21 1 10.3351 27.0797 0.55834
22 1 10.3872 27.0669 -0.379977
23 1 9.62344 27.0067 -0.963512
24 1 8.88568 26.8862 -1.57493
25 1 8.14436 26.2094 -1.51213
26 1 7.51211 26.3036 -2.19941
27 1 6.5808 26.3152 -2.43422
28 1 5.94638 25.9027 -2.96223
29 1 5.3135 25.389 -3.50422
30 1 4.9627 25.1067 -4.33869
31 1 4.60792 24.8574 -5.23751
32 1 4.98625 24.4908 -6.05823
33 1 5.0342 25.0053 -6.80927
34 1 5.58395 24.8906 -7.54657
35 1 6.06477 25.5307 -8.03591
36 1 6.60491 26.0459 -8.59366
37 1 7.20539 26.7603 -8.65605
38 1 7.34935 27.4979 -9.21114
39 1 7.48009 27.8754 -10.0167
40 1 7.88907 28.5866 -10.4213
41 1 7.72069 28.8419 -11.2995
42 1 7.81947 29.2189 -12.1534
43 1 7.81909 29.9753 -12.7108
44 1 8.68643 30.1207 -13.0463
45 1 8.80777 29.9172 -13.9827
46 1 8.28733 30.5088 -14.4771
47 1 8.72649 30.8904 -15.2845
48 1 8.75497 31.1688 -16.1772
49 1 9.56039 31.2103 -16.6745
50 1 10.0386 31.0643 -17.4722
51 1 10.7331 30.5801 -17.8979
52 1 11.6153 30.4742 -17.6331
53 1 12.1083 29.7906 -17.1103
54 1 11.8553 29.9612 -16.2248
55 1 11.4526 29.6419 -15.4137
56 1 11.1351 28.8934 -14.9114
57 1 11.1729 28.7474 -13.9239
58 1 11.5942 29.5297 -13.5034
59 1 11.9507 30.4099 -13.3911
60 1 12.4011 31.017 -12.7569
61 1 12.6847 31.6425 -12.1536
62 1 13.2485 32.1955 -11.6456
63 1 13.6191 32.7667 -10.9444
64 1 14.3574 33.3687 -10.7188
ITEM: TIMESTEP
2250000
ITEM: NUMBER OF ATOMS
64
ITEM: BOX BOUNDS mm mm mm
-3.2000000000000000e+01 3.2000000000000000e+01
-3.2000000000000000e+01 3.4918071205334265e+01
-3.2000000000000000e+01 3.2000000000000000e+01
ITEM: ATOMS id type x y z
1 1 17.1523 32.005 1.3884
2 1 17.2784 31.7009 2.25913
3 1 16.7544 31.3061 2.93229
4 1 16.2718 30.674 3.40462
5 1 15.6343 31.2772 3.65949
6 1 15.0667 31.6864 2.96205
7 1 14.6112 32.1356 2.25794
8 1 14.0271 32.7736 1.97663
9 1 13.1618 32.7016 2.16684
10 1 12.2457 33.01 2.18259
11 1 11.892 33.6795 1.62668
12 1 11.2233 33.3876 1.08094
13 1 10.851 32.5499 0.8459
14 1 10.2416 32.1705 0.306213
15 1 10.9477 31.4717 0.194242
16 1 11.8545 31.2608 0.164363
17 1 12.4562 31.9916 0.0944979
18 1 11.8787 32.6773 -0.213517
19 1 11.4104 33.2424 -0.774152
20 1 10.6441 33.5529 -1.26955
21 1 9.83025 34.066 -1.41419
22 1 9.09233 34.389 -1.82815
23 1 8.15372 34.6317 -1.95864
24 1 7.20285 34.9246 -1.81295
25 1 6.69871 34.206 -2.19784
26 1 5.97654 33.6227 -2.31331
27 1 5.0969 33.3155 -2.30929
28 1 4.49507 32.8755 -1.79525
29 1 3.63767 32.8372 -1.42457
30 1 3.18272 33.2261 -2.16238
31 1 3.15436 33.278 -3.10912
32 1 2.96033 32.5584 -3.67858
33 1 3.10594 31.6435 -3.99241
34 1 3.32905 31.462 -4.90398
35 1 3.79915 31.0902 -5.60355
36 1 4.22261 30.8005 -6.45284
37 1 4.74442 30.3473 -7.12472
38 1 5.3021 30.1207 -7.78796
39 1 6.21906 29.8825 -8.12233
40 1 6.53978 29.6509 -8.98367
41 1 6.88362 30.0757 -9.79272
42 1 7.54538 30.3621 -10.4618
43 1 7.67896 29.9125 -11.2527
44 1 7.97811 30.2512 -12.1269
45 1 8.32266 30.414 -12.9689
46 1 7.79453 30.7824 -13.6229
47 1 7.34117 30.9091 -14.4548
48 1 6.79375 30.5328 -15.0928
49 1 6.69076 29.9321 -15.7693
50 1 7.09111 29.1959 -16.1267
51 1 7.41539 28.4532 -16.6188
52 1 7.73496 27.5929 -16.6943
53 1 7.55247 26.6772 -16.9169
54 1 7.54874 26.0267 -17.5584
55 1 7.07681 25.6114 -18.2186
56 1 7.1061 25.1845 -19.084
57 1 7.04447 24.6387 -19.7807
58 1 6.73918 23.8129 -20.0897
59 1 7.07776 23.5522 -21.0107
60 1 8.03285 23.5187 -20.9929
61 1 8.81276 22.9874 -21.2325
62 1 9.10775 22.5454 -22.0453
63 1 9.4304 22.3277 -22.9144
64 1 9.07851 21.612 -23.3381
ITEM: TIMESTEP
2260000
ITEM: NUMBER OF ATOMS
64
ITEM: BOX BOUNDS mm mm mm
-3.2000000000000000e+01 3.2000000000000000e+01
-3.2000000000000000e+01 3.9817137530450147e+01
-3.2000000000000000e+01 3.2000000000000000e+01
ITEM: ATOMS id type x y z
1 1 19.5852 34.109 -0.438334
2 1 19.6799 34.8927 0.0338273
3 1 19.9321 34.8638 0.958125
4 1 20.33 34.2045 1.46759
5 1 19.8604 33.7616 0.774427
6 1 19.3884 32.9208 0.793651
7 1 18.515 32.5855 0.689394
8 1 17.5716 32.5644 0.766021
9 1 16.7495 32.7237 0.40024
10 1 15.9658 32.869 -0.0204279
11 1 15.3852 33.3378 -0.611335
12 1 14.5809 33.8576 -0.780625
13 1 13.7568 34.232 -1.14268
14 1 12.8206 34.1421 -0.968269
15 1 12.0431 34.4423 -0.543373
16 1 11.4016 34.8452 -0.0327276
17 1 10.6092 35.161 0.39893
18 1 9.95962 35.759 0.748602
19 1 9.64434 36.5757 0.428677
20 1 9.46228 37.4763 0.275795
21 1 9.12272 38.3348 0.100184
22 1 9.64434 39.1674 -0.139281
23 1 9.36449 39.7466 -0.844949
24 1 8.89669 39.6028 -1.66281
25 1 8.44282 39.289 -2.40099
26 1 7.81405 38.8285 -2.92454
27 1 7.46076 38.3565 -3.65523
28 1 7.2357 37.497 -3.8886
29 1 7.33219 37.1884 -4.75105
30 1 7.13053 36.5419 -5.40017
31 1 6.84442 35.9073 -6.00429
32 1 6.37382 35.283 -6.53349
33 1 6.29195 35.9519 -7.1658
34 1 6.66497 36.7756 -7.5022
35 1 6.54588 37.1377 -8.3401
36 1 6.47759 36.6211 -9.09958
37 1 5.95993 36.2249 -9.8075
38 1 5.63189 36.1233 -10.7334
39 1 6.33296 35.6037 -11.0876
40 1 7.18033 35.6191 -11.3544
41 1 7.84845 36.0631 -11.7378
42 1 8.67552 35.5204 -11.5244
43 1 9.07105 34.6823 -11.7241
44 1 9.19483 33.7219 -11.8172
45 1 9.25802 33.0663 -12.4329
46 1 9.13618 32.2055 -12.8049
47 1 9.465 31.5376 -13.421
48 1 9.62182 30.7218 -13.9466
49 1 9.7092 30.1137 -14.6483
50 1 10.1167 29.3746 -15.04
51 1 10.6644 29.0359 -15.7214
52 1 11.304 28.6058 -16.2284
53 1 10.9539 27.999 -16.8948
54 1 10.2351 27.392 -17.0704
55 1 9.34547 27.3598 -16.6849
56 1 8.6547 26.6436 -16.7929
57 1 8.32435 25.7516 -16.687
58 1 8.44068 24.8233 -16.8192
59 1 8.97052 24.2328 -17.3501
60 1 9.9004 24.3396 -17.3251
61 1 10.5307 23.6649 -17.1439
62 1 11.0676 23.0209 -16.8169
63 1 11.6377 22.2832 -16.6124
64 1 12.1301 21.5366 -16.2553
ITEM: TIMESTEP
2270000
ITEM: NUMBER OF ATOMS
64
ITEM: BOX BOUNDS mm mm mm
-3.2000000000000000e+01 3.2000000000000000e+01
-3.2000000000000000e+01 4.4269700460844298e+01
-3.2000000000000000e+01 3.2000000000000000e+01
ITEM: ATOMS id type x y z
1 1 7.26938 32.2474 5.46735
2 1 7.39656 32.782 6.20899
3 1 7.70521 33.2149 7.01301
4 1 8.50012 33.487 7.43957
5 1 9.38543 33.3416 7.78679
6 1 10.3222 33.3618 7.77931
7 1 10.4757 34.187 7.48831
8 1 11.1339 34.8444 7.26952
9 1 11.7613 35.1885 6.69006
10 1 12.0679 35.9674 6.22165
11 1 12.3016 35.8412 5.3771
12 1 11.9205 36.2883 4.59481
13 1 11.5705 36.5951 3.829
14 1 10.6896 36.9533 3.6445
15 1 10.0858 37.4057 3.1319
16 1 10.4369 37.9105 2.47788
17 1 10.8151 38.2216 1.59608
18 1 10.7963 38.9423 0.979085
19 1 10.8927 39.5874 0.287393
20 1 10.7903 40.2415 -0.348811
21 1 9.93836 40.5218 -0.60569
22 1 9.4264 41.2321 -1.06855
23 1 8.60028 41.4931 -1.49724
24 1 7.90742 42.0209 -1.85979
25 1 8.02809 41.8606 -2.77318
26 1 7.97604 41.9925 -3.71115
27 1 8.08094 42.1449 -4.65494
28 1 8.47203 42.7715 -5.26633
29 1 8.99559 43.451 -5.59566
30 1 9.63298 43.8541 -6.27944
31 1 10.1316 44.3653 -6.91398
32 1 9.93396 44.0272 -7.7706
33 1 9.3792 43.5856 -8.34898
34 1 8.99218 42.9945 -8.98452
35 1 9.30785 42.2565 -8.53923
36 1 9.08582 41.4143 -8.27496
37 1 8.6529 40.6051 -8.22493
38 1 7.89972 40.1125 -8.1831
39 1 7.5632 39.2047 -8.43528
40 1 7.75778 38.3769 -8.69435
41 1 7.8476 37.5087 -8.93385
42 1 7.95682 36.716 -9.48562
43 1 7.72772 35.9598 -10.1057
44 1 7.76031 35.0786 -9.84169
45 1 8.56677 34.6936 -9.95692
46 1 9.44886 34.349 -10.102
47 1 10.0853 33.6401 -9.97114
48 1 10.9999 33.5918 -9.9876
49 1 11.1509 33.5519 -10.8837
50 1 11.6456 33.268 -11.6014
51 1 11.9811 32.4238 -11.9756
52 1 12.0263 31.8638 -12.7335
53 1 11.4588 31.3722 -13.3587
54 1 11.2114 31.0765 -14.2359
55 1 11.3553 30.9495 -15.1758
56 1 11.8847 30.3659 -15.6926
57 1 12.2589 29.6059 -16.1892
58 1 12.4321 28.9977 -16.8593
59 1 12.9718 28.7766 -17.5642
60 1 13.3572 28.6367 -18.4116
61 1 13.201 27.6805 -18.2861
62 1 13.5182 26.9149 -18.787
63 1 14.274 26.6857 -19.2988
64 1 14.7677 27.2614 -19.8872
ITEM: TIMESTEP
2280000
ITEM: NUMBER OF ATOMS
64
ITEM: BOX BOUNDS mm mm mm
-3.2000000000000000e+01 3.2000000000000000e+01
-3.2000000000000000e+01 4.4511618495603543e+01
-3.2000000000000000e+01 3.2000000000000000e+01
ITEM: ATOMS id type x y z
1 1 13.8752 36.8868 10.732
2 1 13.4198 37.1583 9.91625
3 1 12.693 37.7057 9.59927
4 1 12.5386 38.047 8.72914
5 1 11.8195 38.5653 8.54678
6 1 11.1221 38.926 8.06381
7 1 11.6153 38.6834 7.25478
8 1 12.3364 38.2911 6.68475
9 1 12.4628 38.0001 5.80858
10 1 11.868 37.8712 5.0984
11 1 11.246 38.5854 5.1318
12 1 10.8477 39.2546 4.62871
13 1 10.7226 40.2166 4.80997
14 1 9.91768 40.7263 4.6913
15 1 9.73848 41.5089 4.18642
16 1 10.1567 42.352 4.07616
17 1 10.2792 43.2755 3.74499
18 1 10.227 44.1424 3.4064
19 1 9.70448 44.6497 2.8296
20 1 10.0704 44.6353 1.93587
21 1 10.2129 44.4215 1.03808
22 1 10.438 44.206 0.107724
23 1 10.3124 43.6965 -0.652662
24 1 10.6154 43.6154 -1.6158
25 1 10.5577 43.4004 -2.53508
26 1 10.2609 43.5458 -3.39033
27 1 10.4747 43.5434 -4.29168
28 1 10.578 43.2285 -5.20635
29 1 10.5474 42.4057 -5.74081
30 1 9.9523 41.8356 -6.0874
31 1 9.20056 41.3818 -6.44271
32 1 8.47046 41.4921 -7.04721
33 1 7.78074 41.1198 -7.61171
34 1 7.37942 40.3848 -8.01176
35 1 7.23241 39.6771 -8.66623
36 1 7.27913 39.1846 -9.4608
37 1 6.6025 38.7068 -9.92257
38 1 6.21935 37.8475 -9.84146
39 1 5.83261 37.0875 -9.41133
40 1 5.94036 36.1932 -9.14901
41 1 5.71046 36.4477 -8.24662
42 1 5.76623 37.2048 -7.71822
43 1 5.30564 37.7947 -7.0864
44 1 4.4876 37.7286 -6.63879
45 1 4.28621 37.0528 -6.00674
46 1 4.97251 36.5446 -5.68133
47 1 5.28064 35.6489 -5.49446
48 1 5.95043 35.0931 -5.77458
49 1 6.36135 35.0561 -6.62106
50 1 6.21323 34.5468 -7.43068
51 1 6.78893 34.3007 -8.11271
52 1 6.84766 33.7802 -8.91109
53 1 6.75167 32.8935 -9.26594
54 1 6.05331 32.2575 -9.52057
55 1 5.19028 31.9263 -9.64881
56 1 5.01923 31.7676 -10.5756
57 1 5.02704 31.0568 -11.2964
58 1 5.26835 30.8182 -12.1949
59 1 5.72452 31.1163 -13.0186
60 1 6.45053 31.2674 -13.5497
61 1 7.33757 31.0682 -13.2807
62 1 8.20298 31.0661 -12.9088
63 1 9.04626 30.72 -12.7235
64 1 9.21052 29.9065 -12.2711
ITEM: TIMESTEP
2290000
ITEM: NUMBER OF ATOMS
64
ITEM: BOX BOUNDS mm mm mm
-3.2000000000000000e+01 3.2000000000000000e+01
-3.2000000000000000e+01 4.0342123433243657e+01
-3.2000000000000000e+01 3.2000000000000000e+01
ITEM: ATOMS id type x y z
1 1 12.389 35.7067 12.0855
2 1 12.6917 35.7841 11.1415
3 1 12.6011 36.0092 10.1877
4 1 11.888 36.4974 9.78846
5 1 11.7812 37.2903 9.3234
6 1 11.2693 37.9049 8.8876
7 1 10.4932 38.3906 8.60892
8 1 10.0058 39.2055 8.49918
9 1 9.5337 39.0309 7.71882
10 1 9.34405 38.3428 7.1101
11 1 8.94412 38.1385 6.304
12 1 8.55373 37.3633 5.95175
13 1 8.26685 36.94 5.11249
14 1 7.862 36.553 4.31491
15 1 7.33795 36.0971 3.67063
16 1 6.41697 35.8397 3.76278
17 1 5.45816 35.9471 3.72592
18 1 5.07078 36.8058 3.52605
19 1 5.52915 37.6068 3.51534
20 1 6.02523 38.2593 3.0774
21 1 6.44154 38.993 2.61239
22 1 6.8522 39.0557 1.71351
23 1 7.40004 39.181 0.989502
24 1 8.15143 38.9513 0.495991
25 1 8.92433 38.7726 0.0239314
26 1 9.87231 39.0668 0.0704363
27 1 10.758 39.2588 -0.279318
28 1 11.6712 39.2023 -0.494729
29 1 12.3084 39.8131 -0.852234
30 1 12.9659 39.9963 -1.44777
31 1 13.4147 40.5641 -2.05304
32 1 13.2028 40.5188 -2.97455
33 1 13.4291 40.0262 -3.87805
34 1 13.15 39.6758 -4.69709
35 1 12.5741 39.0428 -5.06229
36 1 12.2043 38.2227 -5.28933
37 1 12.0102 37.741 -6.07584
38 1 12.002 37.3173 -6.9227
39 1 11.7549 36.6384 -7.52751
40 1 11.5602 35.9762 -8.14556
41 1 11.0494 35.4274 -8.78973
42 1 10.4727 35.206 -9.46791
43 1 9.8401 34.9492 -10.127
44 1 8.9353 35.0222 -10.532
45 1 8.00204 35.2405 -10.7102
46 1 7.14989 35.1286 -11.0824
47 1 6.68034 35.1073 -11.8659
48 1 6.01098 34.6722 -12.3655
49 1 5.85433 33.7182 -12.5414
50 1 6.18521 32.8344 -12.2289
51 1 6.32168 32.1022 -11.6283
52 1 5.70607 31.8237 -11.0472
53 1 5.35101 31.5758 -10.203
54 1 5.21292 31.4204 -9.30002
55 1 5.75862 30.9192 -8.73951
56 1 6.449 30.2167 -8.69839
57 1 7.03055 30.0048 -9.36042
58 1 7.61688 30.07 -10.0699
59 1 7.01889 29.624 -10.6252
60 1 6.61076 29.592 -11.4537
61 1 6.37198 30.0504 -12.2237
62 1 5.89278 30.4017 -12.959
63 1 5.43518 30.5382 -13.787
64 1 5.43778 29.7177 -14.3385
ITEM: TIMESTEP
2300000
ITEM: NUMBER OF ATOMS
64
ITEM: BOX BOUNDS mm mm mm
-3.2000000000000000e+01 3.2000000000000000e+01
-3.2000000000000000e+01 4.1327966750155802e+01
-3.2000000000000000e+01 3.2000000000000000e+01
ITEM: ATOMS id type x y z
1 1 11.0479 32.7702 13.9571
2 1 11.3946 33.495 13.5563
3 1 11.3356 34.3244 13.071
4 1 11.9452 34.8524 12.4863
5 1 12.2124 35.305 11.6909
6 1 12.0408 35.3347 10.7565
7 1 12.1335 35.645 9.90154
8 1 11.8631 35.8579 8.96528
9 1 11.9389 35.6022 8.1155
10 1 11.8372 35.1509 7.35699
11 1 11.4083 35.2512 6.56828
12 1 11.4931 35.6656 5.72669
13 1 11.0385 36.0898 5.02181
14 1 10.5338 36.3794 4.30769
15 1 10.0445 36.9772 4.77116
16 1 10.3422 37.8808 4.88207
17 1 10.5463 38.7705 4.97571
18 1 9.87538 38.988 4.41958
19 1 9.83784 38.6059 3.58842
20 1 10.4754 38.3198 2.97254
21 1 11.0635 37.9917 2.32043
22 1 11.0332 38.6542 1.66488
23 1 11.0773 38.7515 0.744226
24 1 11.2296 38.508 -0.189101
25 1 11.2072 38.23 -1.07583
26 1 10.8263 37.679 -1.68953
27 1 10.4731 36.937 -2.1974
28 1 9.942 36.5847 -2.9363
29 1 9.62096 35.869 -3.45022
30 1 9.23729 35.1894 -3.94255
31 1 8.3686 35.0818 -4.20988
32 1 7.83828 35.5438 -4.85087
33 1 8.13636 35.8547 -5.74256
34 1 8.68493 36.1252 -6.44406
35 1 9.47491 36.5789 -6.67912
36 1 10.3519 36.9621 -6.5596
37 1 10.0505 37.8835 -6.21652
38 1 9.45465 38.5659 -5.9458
39 1 8.61481 38.9766 -5.7606
40 1 7.771 39.2108 -5.38022
41 1 7.46482 39.9097 -5.90547
42 1 7.68085 40.4313 -6.60536
43 1 7.87962 40.754 -7.4941
44 1 8.4821 40.8791 -8.15648
45 1 8.61333 41.2041 -9.0281
46 1 8.20005 41.1528 -9.86983
47 1 7.45908 40.5359 -9.9511
48 1 7.06642 39.6834 -10.2383
49 1 7.80598 39.4382 -10.7414
50 1 8.67767 39.1587 -11.102
51 1 9.19424 38.4164 -11.3786
52 1 8.4515 37.94 -11.7969
53 1 8.17181 37.3549 -12.4755
54 1 7.90255 36.6838 -13.1287
55 1 7.41972 36.1993 -13.8544
56 1 7.56871 35.6519 -14.6239
57 1 7.21327 34.8784 -15.1769
58 1 6.81838 34.6234 -16.0327
59 1 6.20171 34.6871 -16.7988
60 1 5.60452 35.0716 -17.4119
61 1 4.72107 35.3163 -17.402
62 1 3.89056 35.5131 -17.7389
63 1 2.93037 35.608 -17.7522
64 1 2.07604 35.752 -17.2505
ITEM: TIMESTEP
2310000
ITEM: NUMBER OF ATOMS
64
ITEM: BOX BOUNDS mm mm mm
-3.2000000000000000e+01 3.2000000000000000e+01
-3.2000000000000000e+01 4.2089963531696931e+01
-3.2000000000000000e+01 3.2000000000000000e+01
ITEM: ATOMS id type x y z
1 1 15.1521 42.0703 4.19166
2 1 14.4771 41.4808 4.34255
3 1 13.7278 41.0916 4.73832
4 1 13.0123 40.7653 5.21221
5 1 12.3925 40.3963 5.82292
6 1 11.6821 40.9996 5.65526
7 1 10.991 41.1423 6.25199
8 1 10.5198 41.9158 6.41518
9 1 10.2962 41.9905 7.32356
10 1 9.40704 41.8213 7.50576
11 1 9.0025 41.3284 8.184
12 1 9.34593 40.4423 8.2235
13 1 9.53884 40.3581 9.11667
14 1 9.9474 39.5839 9.36244
15 1 10.5628 38.9421 9.00055
16 1 10.9598 39.0334 8.13761
17 1 10.9124 38.9025 7.1817
18 1 11.0181 38.5872 6.28633
19 1 10.6611 38.5715 5.41456
20 1 10.3596 38.6467 4.55047
21 1 10.6102 38.9903 3.68519
22 1 9.94441 38.8913 3.02005
23 1 9.29001 39.5563 2.72932
24 1 8.67774 40.247 2.49204
25 1 8.36821 41.0544 2.09516
26 1 7.9369 41.5318 1.36161
27 1 7.67156 41.2081 0.546583
28 1 8.00088 40.6614 -0.154086
29 1 8.82784 40.3717 -0.495608
30 1 9.10758 39.8362 -1.14609
31 1 8.32895 39.6056 -1.66455
32 1 7.41221 39.6432 -1.77118
33 1 6.5149 39.9521 -1.93072
34 1 5.59404 40.1188 -2.11175
35 1 5.30479 39.8276 -2.97195
36 1 4.61877 40.0358 -3.58602
37 1 3.92694 40.0438 -4.20322
38 1 3.37751 39.9772 -4.96902
39 1 3.33183 40.4299 -5.83214
40 1 3.48561 40.3897 -6.81059
41 1 3.36123 39.9074 -7.6446
42 1 2.74888 39.2339 -7.86559
43 1 2.14468 38.5457 -8.10624
44 1 2.006 37.9773 -8.84533
45 1 2.0196 37.9929 -9.77318
46 1 2.4086 37.4957 -10.5241
47 1 3.14051 37.2205 -11.0108
48 1 3.4434 36.8184 -11.7845
49 1 3.74668 36.808 -12.7274
50 1 3.97966 36.8038 -13.6287
51 1 4.39819 37.1095 -14.3763
52 1 4.58803 37.7032 -15.0752
53 1 5.16102 38.4023 -15.4449
54 1 5.47771 38.253 -16.2924
55 1 5.67398 38.5027 -17.2496
56 1 5.64118 39.2232 -17.8458
57 1 6.00568 39.5535 -18.6499
58 1 6.47672 40.1975 -19.1418
59 1 6.44619 40.725 -19.9067
60 1 7.1238 41.1645 -20.3685
61 1 7.81384 41.0529 -20.9378
62 1 8.51302 40.7473 -21.5257
63 1 8.47459 40.0126 -22.036
64 1 8.08273 39.9952 -22.8194
ITEM: TIMESTEP
2320000
ITEM: NUMBER OF ATOMS
64
ITEM: BOX BOUNDS mm mm mm
-3.2000000000000000e+01 3.2000000000000000e+01
-3.2000000000000000e+01 4.3538746736743221e+01
-3.2000000000000000e+01 3.2000000000000000e+01
ITEM: ATOMS id type x y z
1 1 8.67444 39.002 1.00019
2 1 8.96895 38.6728 1.82447
3 1 8.62394 38.858 2.73053
4 1 9.26577 39.2896 3.29895
5 1 9.53424 40.1743 3.32551
6 1 10.3773 40.549 3.12055
7 1 11.0987 41.0752 3.09276
8 1 11.868 41.504 3.4102
9 1 12.6021 41.9536 2.99622
10 1 12.5331 42.2832 2.0744
11 1 11.9012 42.8363 1.60163
12 1 11.0868 43.2992 1.49193
13 1 10.1567 43.0398 1.58734
14 1 9.55725 42.3996 1.38252
15 1 8.91938 42.1935 0.678169
16 1 8.60206 42.2743 -0.214777
17 1 8.67095 42.3114 -1.16761
18 1 9.24613 42.4338 -1.91796
19 1 10.0949 42.8679 -2.0953
20 1 10.2939 42.9068 -2.98467
21 1 10.9922 43.007 -3.61729
22 1 11.9 42.5158 -3.75524
23 1 11.7017 42.8057 -4.59206
24 1 11.3138 42.7724 -5.4415
25 1 10.7053 42.785 -6.12444
26 1 10.5204 42.7474 -7.12073
27 1 10.847 42.1173 -7.72122
28 1 10.6258 41.611 -8.4724
29 1 9.98906 41.6761 -9.12165
30 1 9.05253 41.5564 -9.29873
31 1 9.14209 42.2892 -9.94764
32 1 8.95771 43.0883 -9.49802
33 1 8.73134 43.6464 -8.80441
34 1 7.94925 43.081 -8.6019
35 1 7.87763 42.1762 -8.42417
36 1 8.09219 41.2842 -8.02889
37 1 8.55318 40.7866 -7.42665
38 1 9.33377 40.3009 -7.23827
39 1 9.81107 39.5732 -7.08128
40 1 9.83561 38.6774 -6.84361
41 1 9.21972 37.8963 -6.80356
42 1 9.0391 37.0361 -7.20499
43 1 8.71589 36.1682 -7.32663
44 1 8.34289 35.7281 -8.07346
45 1 7.98055 34.8404 -8.02272
46 1 7.70527 33.9304 -8.06901
47 1 8.02609 33.8095 -8.95171
48 1 7.83987 34.5727 -9.50026
49 1 7.49413 33.9439 -10.1033
50 1 6.67332 33.6457 -10.383
51 1 5.91408 33.6431 -10.9103
52 1 5.18749 34.0983 -11.3363
53 1 4.376 34.5189 -11.4792
54 1 4.43093 35.4102 -11.2002
55 1 5.09302 35.866 -11.6141
56 1 5.59049 36.6189 -11.8143
57 1 6.43209 37.107 -12.0084
58 1 7.4216 37.0602 -11.8673
59 1 8.33919 36.9956 -11.7818
60 1 9.09764 37.3936 -11.4221
61 1 9.06258 37.5262 -10.4675
62 1 8.39716 38.1085 -10.0905
63 1 7.80227 38.5752 -10.6343
64 1 7.8303 39.3108 -11.1881
ITEM: TIMESTEP
2330000
ITEM: NUMBER OF ATOMS
64
ITEM: BOX BOUNDS mm mm mm
-3.2000000000000000e+01 3.2000000000000000e+01
-3.2000000000000000e+01 4.8355020467363723e+01
-3.2000000000000000e+01 3.2000000000000000e+01
ITEM: ATOMS id type x y z
1 1 15.7794 48.4011 2.59848e-05
2 1 15.5415 47.4939 -0.294079
3 1 15.3657 46.6231 -0.018587
4 1 15.7115 45.9223 0.531253
5 1 16.12 45.0547 0.665092
6 1 16.8455 44.5033 0.862931
7 1 17.5149 44.1154 0.379325
8 1 18.3908 43.9653 0.226113
9 1 19.3163 43.9548 0.0119513
10 1 19.332 43.0493 0.15319
11 1 19.2633 42.0704 0.091733
12 1 18.9446 41.5088 0.820701
13 1 18.3214 40.8907 1.04938
14 1 18.0469 40.3373 0.385556
15 1 17.1044 40.4346 0.343548
16 1 16.5302 41.0689 -0.051639
17 1 15.5563 40.8814 -0.0763193
18 1 15.2616 41.3463 -0.83212
19 1 14.7995 41.869 -1.44724
20 1 14.0348 41.4894 -1.78203
21 1 13.3839 41.9515 -1.25934
22 1 12.5404 42.1509 -1.5258
23 1 11.7973 42.6065 -1.14663
24 1 10.9315 42.6292 -0.750863
25 1 10.3555 43.377 -0.705349
26 1 9.70992 43.8702 -1.12832
27 1 8.91658 43.7731 -1.64171
28 1 8.71619 43.6324 -2.54853
29 1 8.11169 43.7422 -3.2888
30 1 7.88066 44.1087 -4.16556
31 1 8.38787 44.3463 -4.92835
32 1 8.53352 44.7689 -5.7248
33 1 8.51802 44.6813 -6.71729
34 1 8.12904 44.4148 -7.54912
35 1 7.3285 44.0098 -7.76339
36 1 7.06466 43.1469 -7.90707
37 1 7.43911 42.3808 -8.35212
38 1 7.88663 42.1113 -9.14887
39 1 8.29859 41.2617 -9.13901
40 1 7.92497 40.5638 -8.66651
41 1 7.68854 39.6328 -8.73024
42 1 7.9429 38.7738 -9.11603
43 1 8.45977 37.9646 -9.08081
44 1 8.74709 37.2387 -8.6505
45 1 8.74046 36.4183 -9.12758
46 1 8.07454 36.0434 -9.61159
47 1 7.66553 35.5624 -10.3323
48 1 7.33908 35.1404 -11.0862
49 1 6.66095 34.5398 -11.0418
50 1 5.97771 34.0684 -11.385
51 1 5.21291 34.4622 -11.6546
52 1 4.45475 34.4428 -12.1795
53 1 4.28874 34.5275 -13.0621
54 1 3.80563 35.2083 -13.4419
55 1 4.18611 35.6641 -14.1662
56 1 4.87955 35.9874 -14.6802
57 1 5.35178 35.6595 -15.3845
58 1 5.65773 35.2994 -16.2621
59 1 5.33029 35.2597 -17.1293
60 1 4.90893 35.5895 -17.8328
61 1 4.60618 36.1189 -18.5509
62 1 4.38972 36.1366 -19.4432
63 1 3.90891 36.1256 -20.1884
64 1 2.93379 36.0898 -20.2439
ITEM: TIMESTEP
2340000
ITEM: NUMBER OF ATOMS
64
ITEM: BOX BOUNDS mm mm mm
-3.2000000000000000e+01 3.2000000000000000e+01
-3.2000000000000000e+01 4.5621470125866168e+01
-3.2000000000000000e+01 3.2000000000000000e+01
ITEM: ATOMS id type x y z
1 1 19.9298 45.5689 3.10157
2 1 19.8385 44.8707 2.4884
3 1 19.0969 45.0315 1.97961
4 1 18.3217 44.7787 1.53924
5 1 17.3915 44.7905 1.43195
6 1 16.5312 45.0752 1.25021
7 1 15.7206 44.6436 1.53416
8 1 14.915 44.2189 1.41444
9 1 14.2638 43.5839 1.8428
10 1 13.573 43.0323 2.16065
11 1 13.287 42.1293 2.00938
12 1 13.1996 41.247 1.84399
13 1 12.6462 40.7198 1.29791
14 1 12.4486 40.2 0.488704
15 1 11.9756 40.7583 -0.178188
16 1 12.0042 41.2881 -0.965622
17 1 11.9961 42.1888 -1.14218
18 1 12.7791 42.7843 -1.18454
19 1 13.5709 43.3067 -0.942971
20 1 13.9052 44.1074 -0.56949
21 1 13.9694 45.129 -0.645105
22 1 14.6345 45.2103 -1.28384
23 1 15.5267 45.067 -1.58997
24 1 16.0096 45.0846 -2.41136
25 1 16.5029 45.3716 -3.13288
26 1 16.9582 45.5218 -3.90056
27 1 17.248 45.6176 -4.77829
28 1 16.7307 45.3709 -5.58948
29 1 15.9678 44.9699 -5.89933
30 1 15.6099 44.7433 -6.72596
31 1 15.1741 44.3835 -7.49015
32 1 14.5773 43.6814 -7.78003
33 1 14.1414 42.882 -8.11843
34 1 13.3035 42.5545 -8.46681
35 1 12.4822 42.2928 -8.82002
36 1 11.5541 42.261 -8.85077
37 1 10.698 41.8042 -8.81582
38 1 9.982 41.3076 -9.1645
39 1 10.0446 40.38 -9.36071
40 1 10.2556 39.4795 -9.51953
41 1 10.1829 39.049 -10.3156
42 1 9.93021 38.3962 -10.8839
43 1 9.44149 37.7724 -11.4502
44 1 8.61667 37.3248 -11.5396
45 1 8.42209 37.0221 -12.429
46 1 8.15923 37.2365 -13.3064
47 1 7.28722 37.1465 -13.6067
48 1 7.28565 36.3792 -14.1846
49 1 7.13282 35.8877 -14.9803
50 1 6.23546 35.8561 -15.2579
51 1 5.96822 35.6471 -16.1219
52 1 5.48993 35.1597 -16.743
53 1 4.62028 34.7894 -16.9947
54 1 4.54076 33.8303 -16.9926
55 1 5.27754 33.3825 -16.679
56 1 5.91196 33.1569 -15.9938
57 1 6.36798 32.3572 -15.6636
58 1 7.01318 31.6252 -15.7417
59 1 7.263 30.9378 -16.3543
60 1 6.90644 30.1669 -16.6633
61 1 6.88402 29.2417 -16.5485
62 1 7.42297 28.4636 -16.5631
63 1 7.70972 27.6223 -16.4307
64 1 7.83389 27.1057 -15.5904
ITEM: TIMESTEP
2350000
ITEM: NUMBER OF ATOMS
64
ITEM: BOX BOUNDS mm mm mm
-3.2000000000000000e+01 3.2000000000000000e+01
-3.2000000000000000e+01 4.6619428966868028e+01
-3.2000000000000000e+01 3.2000000000000000e+01
ITEM: ATOMS id type x y z
1 1 21.5899 46.1707 3.57971
2 1 20.8229 46.3724 3.19089
3 1 19.9656 46.5073 3.5299
4 1 19.0489 46.3528 3.6917
5 1 18.1901 46.0701 3.4669
6 1 17.5465 45.7414 2.88834
7 1 17.1734 45.5402 2.02757
8 1 17.3569 44.7563 1.57378
9 1 17.4096 44.0671 0.993899
10 1 17.3437 43.2515 0.527547
11 1 17.3524 42.5294 -0.0530558
12 1 17.2865 41.5988 -0.262267
13 1 17.5786 40.7662 -0.691467
14 1 16.8487 40.1506 -0.543021
15 1 16.0391 39.753 -0.483113
16 1 15.4163 39.3957 0.190591
17 1 14.6093 39.3415 0.624471
18 1 13.6862 39.5961 0.715129
19 1 13.0642 40.3455 0.78588
20 1 12.1573 40.5438 0.537426
21 1 11.7438 40.5764 -0.303105
22 1 11.9853 40.2535 -1.15885
23 1 12.1077 39.5471 -1.84636
24 1 11.9965 39.2623 -2.72411
25 1 11.6621 38.5061 -3.15314
26 1 11.5555 38.1231 -4.02358
27 1 11.423 38.2141 -4.99515
28 1 11.0996 38.5413 -5.8619
29 1 10.5554 38.0692 -6.51183
30 1 10.4057 37.6447 -7.34224
31 1 10.2323 37.6066 -8.29238
32 1 10.1473 38.1582 -9.01995
33 1 9.5617 38.5563 -9.62344
34 1 9.60946 39.3065 -10.2378
35 1 9.28616 40.0422 -10.7662
36 1 9.37492 40.4098 -11.664
37 1 9.21325 40.6734 -12.5453
38 1 8.43628 41.09 -12.9354
39 1 7.75894 41.0583 -13.6368
40 1 7.00553 41.0396 -14.1815
41 1 6.36231 40.3017 -14.3881
42 1 5.78022 39.8727 -15.0632
43 1 5.48919 39.147 -15.5839
44 1 5.59177 38.4428 -16.2088
45 1 6.28547 38.3422 -16.852
46 1 7.03249 37.9526 -17.2379
47 1 7.38427 37.0748 -17.3641
48 1 7.53855 36.216 -17.7007
49 1 7.33439 35.2729 -17.799
50 1 7.10934 34.5354 -17.1996
51 1 7.30768 33.5061 -17.2564
52 1 7.66922 32.9267 -16.5592
53 1 7.92391 32.1498 -16.1723
54 1 8.29769 31.2828 -16.2254
55 1 9.12373 30.8674 -16.002
56 1 9.91014 30.836 -16.5322
57 1 10.4474 30.7263 -17.3157
58 1 11.2937 31.0582 -17.5121
59 1 11.8732 31.5494 -18.1075
60 1 12.6651 31.1729 -18.44
61 1 13.1359 30.7386 -19.1185
62 1 13.6312 30.0256 -18.7527
63 1 14.0514 29.1683 -18.6288
64 1 14.9211 29.3144 -18.2273
ITEM: TIMESTEP
2360000
ITEM: NUMBER OF ATOMS
64
ITEM: BOX BOUNDS mm mm mm
-3.2000000000000000e+01 3.2000000000000000e+01
-3.2000000000000000e+01 4.9879819627453720e+01
-3.2000000000000000e+01 3.2000000000000000e+01
ITEM: ATOMS id type x y z
1 1 18.339 48.7505 3.25221
2 1 18.5645 49.4041 2.6177
3 1 19.3682 49.662 3.01072
4 1 20.2072 49.3183 3.11512