ITEM: TIMESTEP
2740000
ITEM: NUMBER OF ATOMS
64
ITEM: BOX BOUNDS mm mm mm
-4.2174596918230328e+01 3.2000000000000000e+01
-3.2000000000000000e+01 5.5107541108450746e+01
-3.2000000000000000e+01 3.2000000000000000e+01
ITEM: ATOMS id type x y z
1 1 -31.0709 41.6242 11.828
2 1 -30.6265 42.4551 11.5454
3 1 -30.8535 43.3247 11.3819
4 1 -31.3049 44.0493 11.0158
5 1 -31.7441 44.8111 10.5821
6 1 -32.081 45.4326 9.9589
7 1 -32.2405 45.9552 9.22225
8 1 -32.1058 46.6091 8.51329
9 1 -31.7885 47.1636 7.85643
10 1 -31.4305 47.6279 7.11426
11 1 -30.8866 48.2266 6.69713
12 1 -30.0358 48.5567 6.50158
13 1 -29.3448 49.0144 6.12399
14 1 -28.4772 49.1131 5.91395
15 1 -27.5758 49.0301 5.72321
16 1 -26.7392 49.0509 5.20629
17 1 -25.7925 48.9874 5.0182
18 1 -24.8907 49.094 5.04296
19 1 -24.0709 49.4518 5.38458
20 1 -23.2777 49.8705 5.65571
21 1 -22.3188 50.0647 5.80267
22 1 -21.339 49.996 5.90743
23 1 -20.5261 49.9636 6.4117
24 1 -19.8414 49.8759 7.05908
25 1 -19.0868 49.9497 7.64533
26 1 -18.2889 50.3068 8.00495
27 1 -17.5991 50.5703 8.53387
28 1 -16.867 50.6844 9.10335
29 1 -16.2634 50.6006 9.86773
30 1 -16.1984 50.5551 10.8424
31 1 -16.4629 50.71 11.7609
32 1 -16.349 50.5871 12.7387
33 1 -16.6633 50.7615 13.6073
34 1 -17.3944 50.7996 14.2403
35 1 -18.0045 50.9416 14.9012
36 1 -18.6634 51.2736 15.5
37 1 -19.5787 51.4797 15.5763
38 1 -20.5652 51.442 15.6564
39 1 -21.5119 51.353 15.6731
40 1 -22.3961 51.607 15.8341
41 1 -23.3385 51.6852 15.8634
42 1 -24.1136 51.6445 16.4364
43 1 -24.9493 51.6118 16.8672
44 1 -25.7394 51.6174 17.3707
45 1 -26.2827 51.4366 18.1048
46 1 -26.8373 51.4009 18.8898
47 1 -27.5818 51.8743 19.2857
48 1 -28.4028 52.218 19.6958
49 1 -29.2354 52.5581 19.8615
50 1 -30.0889 52.9459 19.9386
51 1 -30.8323 53.4662 20.0847
52 1 -31.6339 53.959 19.9019
53 1 -32.4218 54.2403 19.4693
54 1 -33.3546 54.3076 19.3235
55 1 -34.292 54.4939 19.3313
56 1 -35.2509 54.6179 19.3571
57 1 -36.2093 54.4335 19.2839
58 1 -37.0248 53.9257 19.3496
59 1 -37.936 53.7762 19.2614
60 1 -38.8542 53.7024 19.3761
61 1 -39.6713 53.948 19.8045
62 1 -40.6208 54.1431 19.7541
63 1 -41.3594 54.7173 19.4907
64 1 -42.1672 55.0988 19.2596
ITEM: TIMESTEP
2750000
ITEM: NUMBER OF ATOMS
64
ITEM: BOX BOUNDS mm mm mm
-3.3783698012908367e+01 3.2000000000000000e+01
-3.2000000000000000e+01 5.6206068892717624e+01
-3.2000000000000000e+01 3.2000000000000000e+01
ITEM: ATOMS id type x y z
1 1 -33.0577 47.8939 8.09851
2 1 -32.7545 47.3547 8.77842
3 1 -32.2543 46.6553 9.165
4 1 -31.4212 46.2639 9.31432
5 1 -30.8376 45.463 9.19713
6 1 -30.6644 44.5338 9.33293
7 1 -30.3041 43.7851 9.83804
8 1 -30.2422 42.962 10.2546
9 1 -29.9077 42.3972 10.9388
10 1 -29.351 41.9449 11.5147
11 1 -28.6348 41.4569 11.876
12 1 -27.7276 41.2637 12.1479
13 1 -26.8953 41.597 12.0556
14 1 -26.1392 41.9278 11.5974
15 1 -25.4962 42.1506 10.9667
16 1 -25.1964 42.737 10.3011
17 1 -24.6816 42.919 9.51214
18 1 -24.3663 43.062 8.65411
19 1 -23.4794 43.1847 8.21258
20 1 -22.6799 43.4304 7.73855
21 1 -21.9035 43.5699 7.21048
22 1 -21.2777 44.1284 6.87825
23 1 -20.7078 44.9253 6.73401
24 1 -20.1881 45.6932 6.55205
25 1 -19.6554 46.31 7.01605
26 1 -19.642 47.2305 7.0713
27 1 -19.6711 48.1808 7.14235
28 1 -19.8685 49.0904 7.19074
29 1 -20.1091 49.754 7.78739
30 1 -19.8039 50.3655 8.44252
31 1 -19.5583 50.9665 9.07166
32 1 -19.1312 51.7734 9.40333
33 1 -18.69 52.6348 9.35747
34 1 -18.0814 53.2106 9.73557
35 1 -17.6468 53.6819 10.4473
36 1 -17.2936 54.335 11.0063
37 1 -17.0839 55.0383 11.7471
38 1 -17.2733 55.5544 12.4737
39 1 -17.1062 55.7647 13.4107
40 1 -17.3676 56.0583 14.2844
41 1 -17.6642 55.9911 15.1655
42 1 -17.9309 55.6948 15.9959
43 1 -18.3198 55.3995 16.7762
44 1 -18.7487 55.0036 17.5504
45 1 -19.1417 54.3883 18.1242
46 1 -19.9259 54.0989 18.5954
47 1 -20.6554 53.6751 18.9182
48 1 -21.4558 53.1426 18.9163
49 1 -22.2699 52.6854 19.0818
50 1 -23.2338 52.5038 19.0798
51 1 -24.1143 52.399 19.3548
52 1 -24.8995 51.9563 19.1139
53 1 -25.7596 51.6772 18.7714
54 1 -26.6145 52.013 18.482
55 1 -27.5519 52.2523 18.4772
56 1 -28.3955 52.494 18.2925
57 1 -29.2902 52.7084 18.1555
58 1 -30.1978 52.9313 18.4502
59 1 -31.0359 53.0669 18.8779
60 1 -31.6645 53.0248 19.5695
61 1 -32.1453 52.8293 20.3621
62 1 -32.6045 52.4123 21.0217
63 1 -33.2319 52.4932 21.7301
64 1 -33.6323 52.741 22.5751
ITEM: TIMESTEP
2760000
ITEM: NUMBER OF ATOMS
64
ITEM: BOX BOUNDS mm mm mm
-3.7190404939235769e+01 3.2000000000000000e+01
-3.2000000000000000e+01 6.0316316274193376e+01
-3.2000000000000000e+01 3.2000000000000000e+01
ITEM: ATOMS id type x y z
1 1 -37.0054 46.2421 3.87453
2 1 -37.0948 47.0658 4.3917
3 1 -36.9935 47.5608 5.20716
4 1 -36.9997 48.2525 5.85266
5 1 -36.8185 48.9917 6.36085
6 1 -36.8752 49.6535 7.05681
7 1 -36.769 50.4844 7.44632
8 1 -36.3321 51.2387 7.81499
9 1 -36.02 52.0865 8.16368
10 1 -35.495 52.3282 8.91866
11 1 -34.7926 52.1414 9.51287
12 1 -34.0695 51.5725 9.72953
13 1 -33.1685 51.2611 9.51994
14 1 -32.475 50.6928 9.2236
15 1 -31.7299 50.1808 8.90697
16 1 -30.7666 50.0544 8.89023
17 1 -29.8409 50.2177 8.78003
18 1 -28.8969 50.1699 8.95581
19 1 -27.9803 50.0147 9.05859
20 1 -27.0792 50.082 9.10768
21 1 -26.0839 49.8577 9.24877
22 1 -25.14 49.7222 9.02553
23 1 -24.3956 49.6241 8.42319
24 1 -23.5028 49.271 8.17775
25 1 -22.7505 48.9312 7.78442
26 1 -21.8577 48.851 7.50859
27 1 -20.933 48.9412 7.25338
28 1 -20.0767 49.2212 7.48967
29 1 -19.1942 49.4581 7.66036
30 1 -18.3653 49.7977 7.88911
31 1 -17.6377 50.3122 8.10414
32 1 -16.8996 50.8316 8.41467
33 1 -16.286 51.5629 8.47702
34 1 -16.0395 52.4535 8.69743
35 1 -16.2172 53.3689 8.75214
36 1 -16.2363 54.2957 8.89318
37 1 -16.0118 55.1961 9.08592
38 1 -16.183 55.974 9.56408
39 1 -16.6226 56.6743 10.0819
40 1 -17.3116 57.1322 10.5089
41 1 -18.1987 57.4069 10.5548
42 1 -19.0752 57.5673 10.7423
43 1 -19.9276 57.7527 11.0889
44 1 -20.7764 58.053 11.3617
45 1 -21.6253 58.3129 11.5257
46 1 -22.3525 58.8222 11.7281
47 1 -23.0828 59.3489 11.9132
48 1 -23.8948 59.8375 12.0872
49 1 -24.7234 60.151 12.4182
50 1 -25.4722 60.3118 13.0082
51 1 -26.2539 60.5647 13.5093
52 1 -26.9892 60.2117 14.0171
53 1 -27.8174 60.0169 14.486
54 1 -28.6118 60.0714 14.9691
55 1 -29.2469 59.8731 15.6691
56 1 -30.091 59.8977 16.1539
57 1 -30.6182 59.608 16.8545
58 1 -30.9811 58.9996 17.48
59 1 -31.2102 58.3613 18.1519
60 1 -31.2496 57.7368 18.8108
61 1 -31.2625 57.3455 19.7077
62 1 -31.233 57.0663 20.5948
63 1 -30.9909 56.8287 21.4817
64 1 -30.6813 56.7453 22.3588
ITEM: TIMESTEP
2770000
ITEM: NUMBER OF ATOMS
64
ITEM: BOX BOUNDS mm mm mm
-4.3569955107024740e+01 3.2000000000000000e+01
-3.2000000000000000e+01 6.3676776057871251e+01
-3.2000000000000000e+01 3.2000000000000000e+01
ITEM: ATOMS id type x y z
1 1 -43.5565 47.4111 14.2427
2 1 -42.7014 47.5702 13.9643
3 1 -41.9108 47.9042 13.4766
4 1 -41.2827 48.0299 12.8099
5 1 -40.5013 48.0831 12.2561
6 1 -39.7011 48.4621 11.9503
7 1 -38.7578 48.3612 11.7626
8 1 -37.8796 48.1768 12.0523
9 1 -36.9086 48.0416 12.1033
10 1 -36.0242 47.9472 11.8764
11 1 -35.3592 47.8727 11.2167
12 1 -34.6482 47.9244 10.6306
13 1 -33.8487 48.3376 10.3485
14 1 -32.9585 48.512 10.0222
15 1 -32.2776 48.8797 9.45997
16 1 -31.4944 49.2535 9.13242
17 1 -30.8663 49.3383 8.46511
18 1 -29.9555 49.4634 8.16173
19 1 -29.2616 50.0233 7.85687
20 1 -28.9075 50.8185 7.50736
21 1 -28.3585 51.5693 7.21082
22 1 -27.9919 52.4466 7.30592
23 1 -27.3336 53.1174 7.37642
24 1 -26.5511 53.5418 7.58374
25 1 -25.8793 54.0767 8.04464
26 1 -25.3291 54.7678 8.31909
27 1 -24.6403 55.3463 8.57742
28 1 -23.7479 55.6712 8.88645
29 1 -22.9188 55.9232 9.24686
30 1 -22.324 56.4328 9.70274
31 1 -21.6843 56.7631 10.2332
32 1 -21.1434 57.1118 10.9268
33 1 -20.8546 57.5806 11.6824
34 1 -20.4975 58.2531 12.1776
35 1 -19.8874 58.6898 12.77
36 1 -19.5822 58.4118 13.5782
37 1 -19.42 58.2498 14.482
38 1 -19.4241 58.0346 15.3941
39 1 -19.0808 58.065 16.2656
40 1 -18.6345 58.0386 17.1296
41 1 -18.7171 57.6598 17.9836
42 1 -19.1398 57.2829 18.7634
43 1 -19.5081 56.977 19.5647
44 1 -20.1337 56.8929 20.278
45 1 -20.9518 56.8687 20.8456
46 1 -21.8102 57.1857 21.2281
47 1 -22.6163 57.5386 21.5048
48 1 -23.0645 58.3012 21.7671
49 1 -23.5066 59.1249 21.7604
50 1 -23.9934 59.9296 21.7754
51 1 -24.4725 60.7314 21.5274
52 1 -24.6274 61.6287 21.2825
53 1 -24.7145 62.3709 20.7489
54 1 -24.9526 63.111 20.2091
55 1 -25.2888 63.4029 19.3826
56 1 -25.3872 63.716 18.4459
57 1 -25.8127 63.582 17.6456
58 1 -26.4197 63.6178 16.9086
59 1 -27.0211 63.6749 16.2072
60 1 -27.804 63.6345 15.7188
61 1 -28.4811 63.4288 15.1241
62 1 -28.9182 63.3314 14.2712
63 1 -29.384 63.4075 13.4942
64 1 -30.1709 63.4448 12.9409
ITEM: TIMESTEP
2780000
ITEM: NUMBER OF ATOMS
64
ITEM: BOX BOUNDS mm mm mm
-4.1622714971943260e+01 3.2000000000000000e+01
-3.2000000000000000e+01 7.0768308671490843e+01
-3.2000000000000000e+01 3.2000000000000000e+01
ITEM: ATOMS id type x y z
1 1 -41.6314 43.6758 11.0866
2 1 -41.0987 44.512 10.8716
3 1 -40.5039 45.2755 11.0078
4 1 -39.8685 45.7779 11.5111
5 1 -39.4602 46.3151 12.1603
6 1 -38.7597 46.626 12.7045
7 1 -38.2352 47.1507 13.2053
8 1 -37.6779 47.3135 13.9752
9 1 -36.9533 47.3907 14.544
10 1 -36.0289 47.6646 14.6295
11 1 -35.3227 47.8899 14.0897
12 1 -34.5305 47.9069 13.6141
13 1 -33.6261 47.9301 13.4074
14 1 -32.7291 48.2203 13.38
15 1 -31.8242 48.499 13.5078
16 1 -30.9654 48.3864 13.7578
17 1 -30.1768 48.9096 13.6193
18 1 -29.385 49.3268 13.414
19 1 -28.4538 49.6186 13.3575
20 1 -27.6411 50.1331 13.3114
21 1 -26.972 50.721 12.9974
22 1 -26.2793 51.2424 13.3316
23 1 -25.575 51.7599 13.606
24 1 -24.9776 52.5186 13.7379
25 1 -24.5496 53.2323 13.4149
26 1 -24.4205 54.1111 12.9793
27 1 -24.1169 55.0181 13.001
28 1 -23.604 55.8402 13.1445
29 1 -23.3524 56.7615 13.0596
30 1 -23.4078 57.6925 13.1654
31 1 -23.258 58.6327 12.9752
32 1 -22.5739 59.2517 13.1851
33 1 -21.8834 59.6213 13.6286
34 1 -21.2782 60.3049 13.8053
35 1 -20.592 60.8965 14.1243
36 1 -19.9413 61.4526 14.5462
37 1 -19.3189 61.9921 14.9637
38 1 -18.5389 62.506 15.2045
39 1 -18.1413 63.0599 15.7953
40 1 -18.0009 63.4941 16.6447
41 1 -17.8275 64.3292 17.0511
42 1 -17.5176 65.2038 17.3507
43 1 -17.2322 65.9202 17.9033
44 1 -17.173 66.7577 18.2771
45 1 -17.3969 67.6692 18.2248
46 1 -17.5406 68.5414 18.4473
47 1 -17.8109 69.4035 18.5533
48 1 -18.4296 70.0663 18.9139
49 1 -19.2644 70.4872 19.0255
50 1 -20.0506 70.7842 19.3142
51 1 -20.8136 70.7126 19.8256
52 1 -21.4479 70.169 20.3053
53 1 -21.8974 69.4461 20.5896
54 1 -22.4466 68.6569 20.7786
55 1 -23.0662 67.9205 20.769
56 1 -23.1187 66.9003 20.7342
57 1 -23.1391 65.9956 20.4906
58 1 -23.1497 65.1062 20.2275
59 1 -23.0136 64.3481 19.6937
60 1 -22.6824 63.9038 18.9379
61 1 -22.4095 63.4329 18.1625
62 1 -22.2786 62.8056 17.4864
63 1 -21.9775 62.0154 17.0563
64 1 -21.7147 61.2943 16.489
ITEM: TIMESTEP
2790000
ITEM: NUMBER OF ATOMS
64
ITEM: BOX BOUNDS mm mm mm
-4.0383847261617397e+01 3.2000000000000000e+01
-3.2000000000000000e+01 7.6741531721911258e+01
-3.2000000000000000e+01 3.2000000000000000e+01
ITEM: ATOMS id type x y z
1 1 -40.5738 45.8875 21.1875
2 1 -40.0625 46.6021 20.8777
3 1 -39.4681 47.0959 20.3571
4 1 -38.7658 47.3895 19.8308
5 1 -38.0181 47.8195 19.4729
6 1 -37.3309 48.1644 19.0366
7 1 -36.6547 48.5671 18.5303
8 1 -35.9558 48.8594 18.0223
9 1 -35.3844 48.953 17.3205
10 1 -34.6519 49.0825 16.7979
11 1 -33.8914 49.5678 16.3636
12 1 -33.4021 50.1736 15.8289
13 1 -32.9238 50.8341 15.331
14 1 -32.3279 51.4907 15.08
15 1 -31.6532 52.0954 14.779
16 1 -30.8821 52.6743 14.7295
17 1 -30.3712 53.4207 14.4737
18 1 -29.7385 54.102 14.148
19 1 -28.947 54.5623 14.127
20 1 -28.1084 54.8504 13.9137
21 1 -27.187 54.9499 13.902
22 1 -26.356 55.4801 13.8176
23 1 -25.8173 56.2359 13.6959
24 1 -24.9874 56.7692 13.7156
25 1 -24.3009 57.2702 13.3681
26 1 -23.5924 57.8188 13.5689
27 1 -22.8261 58.4198 13.5111
28 1 -22.2836 59.0865 13.3315
29 1 -22.4131 60.0292 13.2845
30 1 -22.4489 60.9258 13.5911
31 1 -22.0553 61.6071 14.0806
32 1 -21.737 62.4098 14.4504
33 1 -21.5023 63.2101 14.8724
34 1 -20.95 63.5877 15.6088
35 1 -20.3839 64.0251 16.2956
36 1 -19.7966 64.1961 16.9668
37 1 -19.1471 64.6072 17.5622
38 1 -18.8076 65.1302 18.3706
39 1 -18.2277 65.534 18.9546
40 1 -17.7894 66.1515 19.5241
41 1 -17.4046 66.804 20.0132
42 1 -17.1928 67.6554 20.3501
43 1 -17.0309 68.5498 20.7207
44 1 -16.8523 69.4443 20.5015
45 1 -16.8867 70.3364 20.2101
46 1 -17.2115 71.2223 19.9661
47 1 -17.6754 72.0872 19.752
48 1 -18.2094 72.8128 19.6698
49 1 -18.7935 73.6005 19.657
50 1 -19.5478 74.228 19.786
51 1 -20.1178 74.8577 20.1657
52 1 -20.8385 75.4787 20.1013
53 1 -21.5069 76.1014 20.3063
54 1 -22.3278 76.4751 20.4807
55 1 -23.1829 76.7887 20.6276
56 1 -24.0278 76.8999 20.9055
57 1 -24.5334 76.8386 21.7299
58 1 -25.0736 76.4138 22.371
59 1 -25.5927 75.883 22.9722
60 1 -26.2197 75.406 23.4917
61 1 -26.8131 74.9525 24.1405
62 1 -27.3533 74.6614 24.8457
63 1 -27.5201 74.4265 25.681
64 1 -27.4856 73.9916 26.4817
ITEM: TIMESTEP
2800000
ITEM: NUMBER OF ATOMS
64
ITEM: BOX BOUNDS mm mm mm
-3.4756054461201451e+01 3.2000000000000000e+01
-3.2000000000000000e+01 7.5414853905373704e+01
-3.2000000000000000e+01 3.2000000000000000e+01
ITEM: ATOMS id type x y z
1 1 -34.2502 50.9826 19.9787
2 1 -34.4389 50.8898 19.0201
3 1 -34.5022 50.918 18.0749
4 1 -34.3107 51.0368 17.1686
5 1 -34.6664 50.8296 16.2888
6 1 -34.624 50.8476 15.3454
7 1 -34.3492 50.6797 14.4413
8 1 -33.8826 50.4574 13.6999
9 1 -33.0734 50.1211 13.3055
10 1 -32.5003 49.6294 12.7685
11 1 -31.8087 49.4575 12.1524
12 1 -31.1795 49.7867 11.5027
13 1 -30.6281 50.3648 10.9747
14 1 -30.3889 51.0542 10.3338
15 1 -29.9236 51.6747 9.82828
16 1 -29.6284 52.536 9.63761
17 1 -29.6616 53.3718 9.96355
18 1 -29.3488 53.9631 10.5867
19 1 -28.7634 54.6012 11.0927
20 1 -28.4998 55.1651 11.8381
21 1 -28.2844 55.7754 12.5814
22 1 -28.188 56.5141 13.2111
23 1 -27.8253 57.1529 13.8395
24 1 -27.4314 57.6099 14.5991
25 1 -27.1146 58.0793 15.4349
26 1 -26.9216 58.4675 16.2504
27 1 -26.5923 58.8696 16.9947
28 1 -26.1403 59.059 17.7573
29 1 -25.7664 59.3413 18.605
30 1 -25.2168 59.8359 19.2171
31 1 -25.1126 60.4612 19.9084
32 1 -24.968 61.2062 20.4563
33 1 -24.4411 61.9755 20.8121
34 1 -24.1135 62.8133 21.0277
35 1 -23.6131 63.7041 21.0964
36 1 -22.8318 64.2381 21.1964
37 1 -22.1874 64.8302 20.936
38 1 -21.7178 65.1294 20.2213
39 1 -21.1882 65.4991 19.4854
40 1 -20.8288 66.0227 18.8025
41 1 -20.1487 66.5804 18.3883
42 1 -19.4986 67.2834 18.2547
43 1 -18.9474 68.0642 18.2084
44 1 -18.409 68.8737 18.178
45 1 -17.9747 69.7399 18.0432
46 1 -17.6913 70.603 17.8661
47 1 -17.2902 71.3687 17.4234
48 1 -17.2508 72.2534 17.3672
49 1 -17.2443 73.1926 17.0909
50 1 -17.4958 73.9243 16.5427
51 1 -17.6404 74.4814 15.7919
52 1 -18.1793 74.8642 15.1459
53 1 -18.8255 75.2911 14.5349
54 1 -19.6737 75.6154 14.537
55 1 -20.5859 75.7379 14.6161
56 1 -21.2321 75.4934 15.2652
57 1 -21.5932 74.9993 15.9732
58 1 -21.8901 74.1544 16.3971
59 1 -22.2066 73.2432 16.7011
60 1 -22.428 72.5998 17.3827
61 1 -22.8756 72.0274 17.9987
62 1 -23.0565 71.5522 18.85
63 1 -23.3448 71.1676 19.6934
64 1 -23.5254 70.723 20.4745
ITEM: TIMESTEP
2810000
ITEM: NUMBER OF ATOMS
64
ITEM: BOX BOUNDS mm mm mm
-3.2000000000000000e+01 3.2000000000000000e+01
-3.2000000000000000e+01 7.6316474462311277e+01
-3.2000000000000000e+01 3.2000000000000000e+01
ITEM: ATOMS id type x y z
1 1 -28.1283 52.4532 20.7294
2 1 -28.3435 52.6934 19.8333
3 1 -28.2649 53.1394 19.0091
4 1 -28.4857 53.5543 18.1472
5 1 -28.6347 54.1995 17.4274
6 1 -28.9326 54.8187 16.7541
7 1 -28.9687 55.4438 16.0596
8 1 -28.7078 56.2254 15.6062
9 1 -28.6782 57.0381 15.1328
10 1 -28.5319 57.8305 14.6177
11 1 -28.4289 58.5849 14.0217
12 1 -28.1018 59.1622 13.3118
13 1 -27.9645 59.9869 12.7529
14 1 -27.2605 59.9825 12.1607
15 1 -26.4721 60.0551 11.6111
16 1 -25.6266 60.2352 11.233
17 1 -24.7442 60.5889 11.033
18 1 -24.0088 61.2038 10.904
19 1 -23.5386 61.9689 10.9688
20 1 -23.2093 62.6912 11.5316
21 1 -22.9248 63.1285 12.3033
22 1 -22.7121 63.6641 13.0931
23 1 -22.9665 64.3803 13.6905
24 1 -22.9289 65.091 14.3029
25 1 -22.9984 65.7293 14.9383
26 1 -23.4056 66.2314 15.6147
27 1 -23.9803 66.5239 16.3637
28 1 -24.6245 66.5371 17.0472
29 1 -25.2877 66.711 17.7428
30 1 -25.9773 66.8977 18.3805
31 1 -26.6226 67.5739 18.7102
32 1 -26.9801 68.4227 18.8326
33 1 -27.1726 69.3168 18.8284
34 1 -27.3223 70.2429 18.8641
35 1 -27.1584 71.108 18.9632
36 1 -26.8113 71.9845 18.8299
37 1 -26.1149 72.5669 18.5808
38 1 -25.5108 73.2541 18.4488
39 1 -25.0226 74.0052 18.1773
40 1 -24.5699 74.7741 17.7591
41 1 -23.8949 75.3216 17.361
42 1 -23.1414 75.6894 16.9027
43 1 -22.4064 76.1046 16.5183
44 1 -21.5016 75.9005 16.269
45 1 -20.6313 76.0026 15.9891
46 1 -19.6479 75.8498 16.1391
47 1 -18.9961 75.1652 16.0325
48 1 -18.7897 74.3836 15.6241
49 1 -18.5816 73.6127 15.069
50 1 -18.4559 72.6561 14.9717
51 1 -18.6285 71.7214 15.0765
52 1 -18.6451 70.7893 15.2009
53 1 -19.178 70.0912 15.6032
54 1 -19.6194 69.2664 15.4841
55 1 -20.2593 68.589 15.4675
56 1 -20.7558 67.754 15.2947
57 1 -21.398 67.1907 14.8796
58 1 -22.0105 66.7096 14.392
59 1 -22.4413 66.2276 13.6742
60 1 -22.7391 65.6271 13.0625
61 1 -23.5301 65.1161 12.8019
62 1 -24.4484 64.6989 12.7066
63 1 -25.3654 64.488 12.6407
64 1 -26.2223 64.1233 12.621
ITEM: TIMESTEP
2820000
ITEM: NUMBER OF ATOMS
64
ITEM: BOX BOUNDS mm mm mm
-3.2000000000000000e+01 3.2000000000000000e+01
-3.2000000000000000e+01 7.8133999616116782e+01
-3.2000000000000000e+01 3.2000000000000000e+01
ITEM: ATOMS id type x y z
1 1 -23.621 47.2258 10.295
2 1 -23.6391 48.1146 10.0326
3 1 -23.5588 49.0489 10.1538
4 1 -23.6086 50.0072 10.1351
5 1 -23.6426 50.9081 9.76525
6 1 -24.0182 51.6507 9.29013
7 1 -24.3172 52.5132 9.00214
8 1 -24.9282 53.1852 8.78551
9 1 -25.4558 53.7811 8.24508
10 1 -26.2343 54.2868 8.15553
11 1 -26.9702 54.8777 8.1668
12 1 -27.5598 55.7246 8.10893
13 1 -28.0566 56.4542 8.29817
14 1 -28.7335 57.0505 8.80263
15 1 -29.0824 57.7471 9.30735
16 1 -29.3581 58.5665 9.67657
17 1 -29.2398 59.4567 9.82395
18 1 -28.7647 60.2011 10.2794
19 1 -28.3561 60.9438 10.6851
20 1 -28.1627 61.7091 11.1912
21 1 -28.2164 62.559 11.5404
22 1 -28.0319 63.4357 11.8176
23 1 -27.752 64.1815 12.2862
24 1 -27.4964 65.0316 12.6664
25 1 -27.2734 65.8791 12.8392
26 1 -27.0892 66.6209 13.3266
27 1 -27.1566 67.4969 13.3851
28 1 -27.2447 68.3996 13.4836
29 1 -27.1832 69.289 13.3274
30 1 -26.6583 70.0614 13.6064
31 1 -26.0925 70.8113 13.9299
32 1 -25.733 71.5988 14.1979
33 1 -25.3233 72.3327 14.4302
34 1 -25.1642 73.2792 14.6048
35 1 -25.1724 74.16 14.8886
36 1 -24.991 74.8403 15.5188
37 1 -24.8355 75.6773 15.919
38 1 -24.5003 76.5438 16.1485
39 1 -24.0459 77.4268 16.1921
40 1 -23.3594 77.9214 15.8145
41 1 -22.6576 78.1291 15.2421
42 1 -21.9603 77.7386 14.7352
43 1 -21.2262 77.3832 14.2417
44 1 -21.1686 76.9783 13.4268
45 1 -21.1121 76.533 12.5734
46 1 -20.5709 76.1758 11.8641
47 1 -19.9246 75.5814 11.4682
48 1 -19.7279 74.9133 10.9253
49 1 -19.6966 74.1064 10.3896
50 1 -19.8357 73.448 9.82476
51 1 -20.1797 72.6956 9.34476
52 1 -20.3507 71.7565 9.32506
53 1 -20.6447 70.8855 9.5824
54 1 -20.7315 69.9559 9.49467
55 1 -21.0926 69.1303 9.33011
56 1 -21.4806 68.2921 9.32625
57 1 -21.6251 67.3529 9.48282
58 1 -21.7468 66.4999 9.85725
59 1 -21.7486 65.8052 10.4336
60 1 -21.7231 65.1108 11.0937
61 1 -21.4202 64.3114 11.5291
62 1 -21.377 63.3733 11.4742
63 1 -21.0858 62.4998 11.3208
64 1 -20.8412 61.5665 11.3579
ITEM: TIMESTEP
2830000
ITEM: NUMBER OF ATOMS
64
ITEM: BOX BOUNDS mm mm mm
-3.4494564146251001e+01 3.2000000000000000e+01
-3.2000000000000000e+01 7.5838096171653490e+01
-3.2000000000000000e+01 3.2000000000000000e+01
ITEM: ATOMS id type x y z
1 1 -28.9129 53.753 3.44687
2 1 -29.5535 54.2059 4.00756
3 1 -30.0339 54.7118 4.61777
4 1 -30.3257 55.3473 5.27912
5 1 -30.5355 55.6505 6.13454
6 1 -30.4381 56.1036 6.9239
7 1 -30.536 56.4981 7.7529
8 1 -30.4981 56.9126 8.60275
9 1 -30.9716 57.2857 9.29528
10 1 -31.0742 57.6739 10.1387
11 1 -31.0417 57.987 11.0852
12 1 -31.1975 58.1048 12.0691
13 1 -31.5296 58.4512 12.864
14 1 -31.7473 59.0581 13.5404
15 1 -32.2821 59.7558 13.8762
16 1 -33.1116 60.2442 13.7031
17 1 -33.7831 60.9168 13.6332
18 1 -34.2617 61.6794 13.763
19 1 -34.4828 62.6235 13.9149
20 1 -34.4561 63.5351 14.192
21 1 -34.2982 64.4734 14.4629
22 1 -34.2628 65.2972 15.018
23 1 -34.362 66.1911 15.1984
24 1 -34.2565 67.0764 15.4986
25 1 -34.0035 67.8647 15.8777
26 1 -33.9584 68.7 16.2775
27 1 -33.8 69.6389 16.2809
28 1 -33.4971 70.5867 16.1881
29 1 -32.9407 71.3374 15.9884
30 1 -32.5561 72.1582 15.853
31 1 -32.1589 72.9643 15.556
32 1 -31.4478 73.5307 15.3913
33 1 -30.8409 74.1584 15.3673
34 1 -29.9085 74.4311 15.1631
35 1 -28.964 74.6876 15.1294
36 1 -28.0699 74.7249 14.9832
37 1 -27.3694 74.8581 14.3762
38 1 -26.7318 75.1513 13.7119
39 1 -26.0829 75.1554 13.0517
40 1 -25.5449 75.1638 12.2451
41 1 -24.9026 75.5065 11.6004
42 1 -24.2551 75.815 11.0007
43 1 -23.3595 75.6879 10.6444
44 1 -22.4871 75.6037 10.2919
45 1 -21.6071 75.3118 10.0638
46 1 -20.7845 74.9402 9.88224
47 1 -19.9303 74.5143 10.0249
48 1 -19.0066 74.2523 10.2453
49 1 -18.3445 73.8289 10.6978
50 1 -17.996 73.203 11.3199
51 1 -17.8184 72.3328 11.6202
52 1 -17.8413 71.3554 11.7418
53 1 -17.9986 70.48 11.9717
54 1 -18.2749 69.6332 12.1113
55 1 -18.7134 68.8194 12.1683
56 1 -19.1837 67.9763 12.3159
57 1 -19.8753 67.3753 12.462
58 1 -20.4464 66.6741 12.7869
59 1 -20.5612 65.8263 13.211
60 1 -20.4481 65.0226 13.6615
61 1 -20.2982 64.2576 14.1341
62 1 -20.3668 63.2756 14.1983
63 1 -20.0866 62.3572 14.0533
64 1 -19.628 61.5311 13.9357
ITEM: TIMESTEP
2840000
ITEM: NUMBER OF ATOMS
64
ITEM: BOX BOUNDS mm mm mm
-3.5590265671598274e+01 3.2000000000000000e+01
-3.2000000000000000e+01 7.3001467592951172e+01
-3.2000000000000000e+01 3.2000000000000000e+01
ITEM: ATOMS id type x y z
1 1 -33.7389 56.9413 1.16745
2 1 -33.7431 56.5917 2.0283
3 1 -33.8373 55.9809 2.72785
4 1 -34.0756 55.7053 3.61662
5 1 -34.1758 55.6954 4.58418
6 1 -34.4618 55.7206 5.47049
7 1 -34.7043 55.4632 6.33903
8 1 -34.8149 55.4501 7.29544
9 1 -34.9205 55.4811 8.23497
10 1 -34.9221 55.9135 9.04405
11 1 -34.8205 56.25 9.95428
12 1 -34.7183 56.3514 10.8846
13 1 -34.655 56.6547 11.801
14 1 -34.5416 57.1459 12.5901
15 1 -34.5365 57.7948 13.3117
16 1 -34.8676 58.5614 13.7191
17 1 -35.0449 59.3823 14.0911
18 1 -34.9433 60.306 14.2308
19 1 -34.9771 61.2326 14.3912
20 1 -35.0828 62.1021 14.6765
21 1 -35.3682 62.9624 14.853
22 1 -35.405 63.7211 15.3989
23 1 -35.3987 64.5969 15.7682
24 1 -35.1058 65.5058 15.7462
25 1 -35.0616 66.4137 15.6896
26 1 -35.081 67.3173 15.5223
27 1 -34.9494 68.149 15.1419
28 1 -34.5523 68.9973 15.0453
29 1 -34.1772 69.8285 15.3889
30 1 -33.7521 70.3176 16.0314
31 1 -33.4834 71.0481 16.6037
32 1 -33.051 71.7062 17.1093
33 1 -32.5265 72.4717 17.5272
34 1 -31.7288 72.9215 17.6251
35 1 -30.8655 72.7564 17.8984
36 1 -29.9696 72.8549 18.3421
37 1 -29.1205 72.6129 18.6842
38 1 -28.2098 72.5021 18.4863
39 1 -27.3136 72.3306 18.4372
40 1 -26.4162 72.1215 18.8348
41 1 -25.5567 72.0805 19.2426
42 1 -24.6998 71.9404 19.5586
43 1 -23.8244 71.7375 19.8373
44 1 -22.9854 71.5057 20.2022
45 1 -22.0973 71.2755 19.9778
46 1 -21.5553 70.7644 19.3685
47 1 -21.1942 70.22 18.6859
48 1 -21.1698 70.0605 17.7358
49 1 -21.1078 69.9524 16.7914
50 1 -21.3657 70.0109 15.8745
51 1 -21.5206 69.7491 14.9549
52 1 -21.7094 69.7086 14.0266
53 1 -22.1018 69.6668 13.1527
54 1 -22.4981 69.6625 12.2869
55 1 -22.9734 69.7228 11.5044
56 1 -23.3816 69.2114 10.7739
57 1 -24.0504 68.8417 10.2577
58 1 -24.8234 68.3442 10.0533
59 1 -25.2934 67.5121 10.0933
60 1 -25.9794 66.8402 10.256
61 1 -26.6086 66.2103 10.3193
62 1 -27.2838 65.5102 10.3974
63 1 -28.1853 65.1533 10.1882
64 1 -29.0823 64.8659 10.0983
ITEM: TIMESTEP
2850000
ITEM: NUMBER OF ATOMS
64
ITEM: BOX BOUNDS mm mm mm
-3.8731356698156581e+01 3.2000000000000000e+01
-3.2000000000000000e+01 7.3943032427709312e+01
-3.2000000000000000e+01 3.2000000000000000e+01
ITEM: ATOMS id type x y z
1 1 -29.9471 53.5363 1.16558
2 1 -30.7304 53.4367 1.62932
3 1 -31.5189 53.43 2.14242
4 1 -32.0713 53.4548 2.8773
5 1 -32.3074 53.4444 3.77181
6 1 -32.7619 53.7921 4.4982
7 1 -32.9394 54.5991 4.91677
8 1 -32.9707 55.44 5.3066
9 1 -33.0472 56.3403 5.47055
10 1 -33.3899 57.1185 5.88979
11 1 -33.8234 57.8212 6.27623
12 1 -34.1294 58.7369 6.42326
13 1 -34.5882 59.4388 6.84952
14 1 -34.5023 59.949 7.60097
15 1 -34.1314 60.4374 8.30383
16 1 -34.0394 60.8944 9.13516
17 1 -34.1908 61.2157 9.98058
18 1 -34.3456 61.8109 10.7374
19 1 -34.5434 62.4429 11.4788
20 1 -34.5353 63.1893 12.051
21 1 -34.5591 63.8396 12.7165
22 1 -34.7233 64.4708 13.4408
23 1 -34.9988 65.155 13.9962
24 1 -35.2447 66.0354 14.3162
25 1 -35.6766 66.8397 14.6964
26 1 -36.1808 67.4429 15.3158
27 1 -36.7378 68.2113 15.4547
28 1 -37.5493 68.6213 15.5654
29 1 -38.3597 69.1092 15.6017
30 1 -38.8033 69.8476 15.9782
31 1 -38.9403 70.7304 16.2598
32 1 -38.6164 71.4728 16.6667
33 1 -38.0216 71.888 17.2796
34 1 -37.4931 72.421 17.7779
35 1 -36.8545 72.8174 18.2973
36 1 -36.1819 73.1555 18.9083
37 1 -35.4977 73.4153 19.4864
38 1 -34.7137 73.3832 20.0169
39 1 -34.0272 73.6387 20.629
40 1 -33.3603 73.7774 21.3252
41 1 -32.5878 73.9592 21.9026
42 1 -31.7084 74.015 22.1266
43 1 -30.8141 73.7645 22.1873
44 1 -30.0207 73.3093 21.938
45 1 -29.2866 72.8656 21.5652
46 1 -28.4997 72.5684 21.1352
47 1 -27.8787 71.9434 20.7332
48 1 -27.57 71.1246 20.3273
49 1 -27.5114 70.3983 19.6741
50 1 -27.1309 69.9458 18.9621
51 1 -26.9166 69.4192 18.2215
52 1 -26.6279 69.2105 17.3522
53 1 -26.3802 69.1217 16.4381
54 1 -26.5237 69.5393 15.5638
55 1 -26.5288 69.4519 14.6394
56 1 -26.523 69.4576 13.6977
57 1 -26.3069 69.8765 12.9108
58 1 -26.3835 70.3667 12.1321
59 1 -26.58 70.5824 11.2139
60 1 -26.8728 70.7087 10.3254
61 1 -27.1275 71.1823 9.55321
62 1 -27.6385 71.6883 8.97009
63 1 -28.1343 72.3301 8.54363
64 1 -28.3584 73.1129 8.08629
ITEM: TIMESTEP
2860000
ITEM: NUMBER OF ATOMS
64
ITEM: BOX BOUNDS mm mm mm
-4.1880652101392897e+01 3.2000000000000000e+01
-3.2000000000000000e+01 7.1243522318627285e+01
-3.2000000000000000e+01 3.2000000000000000e+01
ITEM: ATOMS id type x y z
1 1 -29.0702 47.4812 2.73762
2 1 -29.48 48.1961 2.36127
3 1 -30.0017 48.9459 2.25071
4 1 -30.5118 49.7108 2.45225
5 1 -31.0952 50.1963 3.10257
6 1 -31.3727 50.9527 3.5696
7 1 -31.4643 51.8379 3.82008
8 1 -31.5393 52.6192 4.36333
9 1 -31.905 53.4921 4.67703
10 1 -32.1401 54.3463 5.04486
11 1 -32.3612 55.2607 5.2086
12 1 -32.5349 56.1883 5.48053
13 1 -32.4205 57.0089 5.86862
14 1 -32.4546 57.8931 6.2294
15 1 -32.7413 58.6907 6.5657
16 1 -32.646 59.3259 7.21832
17 1 -32.9613 60.0459 7.83447
18 1 -33.4229 60.8707 7.81909
19 1 -33.6826 61.602 8.29556
20 1 -34.1412 62.1773 8.91502
21 1 -34.4117 62.6174 9.71
22 1 -34.7325 62.993 10.564
23 1 -35.1633 63.543 11.1691
24 1 -35.8013 63.9532 11.7377
25 1 -36.3439 64.5354 12.1591
26 1 -36.9344 65.2313 12.2788
27 1 -37.4823 65.9147 12.5646
28 1 -38.0815 66.4229 12.9963
29 1 -38.7235 66.763 13.6375
30 1 -39.305 67.1333 14.3374
31 1 -39.6319 67.8066 14.9282
32 1 -40.2536 68.3777 15.3996
33 1 -40.7906 68.8416 16.0231
34 1 -41.3659 69.3836 16.5503
35 1 -41.8732 70.0788 16.9243
36 1 -41.6722 70.472 17.7334
37 1 -41.1209 70.8725 18.3525
38 1 -40.4048 71.1876 18.8107
39 1 -39.5198 71.2348 19.0607
40 1 -38.675 70.856 18.8324
41 1 -37.888 70.4507 18.5159
42 1 -37.164 70.0544 18.1005
43 1 -36.5383 69.388 17.9011
44 1 -36.3509 68.6591 17.322
45 1 -36.0769 67.9711 16.8382
46 1 -35.9429 67.2555 16.2247
47 1 -35.309 66.7775 15.7248
48 1 -34.4896 66.4506 15.4248
49 1 -33.7152 66.1798 14.9948
50 1 -32.9296 66.0271 14.5549
51 1 -32.2554 66.0272 13.869
52 1 -31.5995 66.1856 13.2103
53 1 -30.8981 66.3253 12.5835
54 1 -30.2203 66.3797 11.8787
55 1 -29.9541 66.3394 10.982
56 1 -30.0533 65.9101 10.1974
57 1 -29.8017 65.311 9.44123
58 1 -29.6084 64.4978 8.99944
59 1 -29.5864 63.8564 8.28076
60 1 -29.4409 63.6399 7.37402
61 1 -29.2834 63.2363 6.5582
62 1 -29.3499 62.7418 5.78334
63 1 -29.3851 61.9583 5.27383
64 1 -29.2996 61.3681 4.53574
ITEM: TIMESTEP
2870000
ITEM: NUMBER OF ATOMS
64
ITEM: BOX BOUNDS mm mm mm
-4.2458625642435450e+01 3.2000000000000000e+01
-3.2000000000000000e+01 6.7311019789552233e+01
-3.2000000000000000e+01 3.2000000000000000e+01
ITEM: ATOMS id type x y z
1 1 -27.6166 50.9639 4.94342
2 1 -28.3119 51.522 5.40097
3 1 -29.1575 51.8808 5.37491
4 1 -29.993 52.1854 5.72504
5 1 -30.5881 52.8304 5.98705
6 1 -31.2813 53.047 6.54141
7 1 -31.8224 53.3867 7.27305
8 1 -32.3087 53.7761 7.99688
9 1 -33.1755 53.9785 8.32633
10 1 -34.056 54.086 8.61258
11 1 -34.9367 54.2844 8.88975
12 1 -35.7864 54.5863 9.14765
13 1 -36.6465 54.7293 9.55161
14 1 -37.5888 54.8992 9.6402
15 1 -38.468 55.3094 9.68676
16 1 -39.3225 55.8409 9.67781
17 1 -39.8049 56.7079 9.81818
18 1 -40.283 57.2742 10.4095
19 1 -40.5433 57.901 11.0492
20 1 -41.1028 58.4234 11.5694
21 1 -41.73 58.8542 12.1043
22 1 -42.421 59.3232 12.7144
23 1 -42.6187 60.0071 13.3525
24 1 -42.6476 60.8022 13.8947
25 1 -42.3317 61.4963 14.4319
26 1 -42.1458 62.3985 14.8071
27 1 -41.9571 63.3067 15.1607
28 1 -41.8111 64.1944 15.3879
29 1 -41.1523 64.929 15.3293
30 1 -40.7177 65.7275 15.3953
31 1 -40.2404 66.3607 15.9165
32 1 -39.8401 66.7226 16.7288
33 1 -39.325 66.8936 17.5515
34 1 -38.8639 67.2705 18.2894
35 1 -38.168 67.2235 18.9585
36 1 -37.3527 66.9814 19.3395
37 1 -36.6444 66.641 19.9354
38 1 -36.1911 66.1392 20.4976
39 1 -35.5047 65.7421 21.0147
40 1 -34.9225 65.2602 21.5228
41 1 -34.2475 64.6302 21.822
42 1 -33.6202 63.9225 21.7947
43 1 -33.146 63.1757 21.3301
44 1 -32.5452 62.5196 21.0423
45 1 -32.4666 62.0799 20.2213
46 1 -32.4827 61.7181 19.379
47 1 -32.4928 61.6735 18.3943
48 1 -32.7885 61.4899 17.5605
49 1 -32.9472 61.5817 16.6455
50 1 -32.8799 61.6947 15.7172
51 1 -32.727 61.8337 14.743
52 1 -32.6534 62.3896 14.0051
53 1 -32.6333 63.1576 13.4538
54 1 -32.4108 63.6477 12.6562
55 1 -32.0401 64.268 12.1294
56 1 -31.3668 64.3555 11.4018
57 1 -30.5765 64.6234 10.8957
58 1 -29.852 64.5547 10.2909
59 1 -29.0167 64.7693 9.76633
60 1 -28.2442 64.9172 9.13428
61 1 -27.5321 65.4232 8.65019
62 1 -26.8273 65.745 8.18437
63 1 -26.0006 66.2183 7.96927
64 1 -25.2493 66.7007 7.80239
ITEM: TIMESTEP
2880000
ITEM: NUMBER OF ATOMS
64
ITEM: BOX BOUNDS mm mm mm
-4.3125398777354540e+01 3.2000000000000000e+01