ITEM: TIMESTEP
1980000
ITEM: NUMBER OF ATOMS
64
ITEM: BOX BOUNDS mm mm mm
-3.2000000000000000e+01 3.2000000000000000e+01
-3.2000000000000000e+01 3.2724843489969800e+01
-3.2000000000000000e+01 3.2000000000000000e+01
ITEM: ATOMS id type x y z
1 1 14.1013 23.6521 6.95463
2 1 13.4321 23.0936 6.64444
3 1 12.8171 22.6326 6.11299
4 1 11.914 22.3477 5.92805
5 1 11.2782 21.6377 5.88272
6 1 10.4623 21.1303 6.00899
7 1 9.88367 20.4341 6.23083
8 1 9.66355 19.73 6.84189
9 1 9.15684 19.1544 7.38809
10 1 8.40895 18.4957 7.27765
11 1 7.61194 18.395 6.87258
12 1 6.9059 18.5492 6.25698
13 1 6.34615 18.9848 5.6977
14 1 5.76054 19.3961 5.07652
15 1 5.0198 19.7703 4.57086
16 1 4.5973 20.3853 4.02349
17 1 3.88624 21.035 3.76666
18 1 3.84303 21.6863 3.02681
19 1 4.02917 22.4849 2.56063
20 1 4.08134 23.1968 1.9751
21 1 3.93086 24.1717 1.8922
22 1 3.54064 24.9979 1.73089
23 1 3.00941 25.6656 1.31218
24 1 2.57998 26.5118 1.29234
25 1 2.37971 27.3098 1.84223
26 1 2.32 28.1038 2.36043
27 1 2.67569 28.7542 2.86818
28 1 3.31222 29.2648 3.34778
29 1 4.04268 29.8903 3.42303
30 1 4.9282 30.136 3.40261
31 1 5.74641 30.3598 3.02224
32 1 6.26732 30.5271 2.27455
33 1 7.14216 30.3989 1.89012
34 1 7.88175 30.5705 1.34829
35 1 8.679 30.7836 0.862848
36 1 9.34607 31.0392 0.264502
37 1 9.77845 31.5369 -0.412412
38 1 10.2601 32.3399 -0.642464
39 1 11.1241 32.6499 -0.848699
40 1 11.7935 32.6689 -1.53001
41 1 12.2893 32.7184 -2.33861
42 1 12.6847 32.503 -3.1956
43 1 12.6792 31.8548 -3.8965
44 1 12.9066 31.406 -4.73549
45 1 12.5521 30.552 -4.97598
46 1 12.2308 30.0573 -5.75492
47 1 11.8987 29.2825 -6.22261
48 1 11.6296 29.0037 -7.06342
49 1 11.2188 29.2192 -7.86282
50 1 11.105 29.9328 -8.508
51 1 11.3859 30.319 -9.33772
52 1 11.5287 30.6843 -10.2092
53 1 11.6955 30.885 -11.171
54 1 12.1478 31.036 -12.0027
55 1 12.2222 31.2857 -12.8864
56 1 12.5521 31.1393 -13.8048
57 1 12.6779 30.6566 -14.5868
58 1 12.668 29.9611 -15.2219
59 1 12.7779 29.2817 -15.8847
60 1 13.3286 28.736 -16.3807
61 1 13.8612 28.1577 -16.8074
62 1 14.1316 27.4987 -17.3901
63 1 14.3502 26.5763 -17.5623
64 1 15.0939 25.972 -17.5507
ITEM: TIMESTEP
1990000
ITEM: NUMBER OF ATOMS
64
ITEM: BOX BOUNDS mm mm mm
-3.2000000000000000e+01 3.2000000000000000e+01
-3.2000000000000000e+01 3.3822636239875294e+01
-3.2000000000000000e+01 3.2000000000000000e+01
ITEM: ATOMS id type x y z
1 1 15.4158 16.4308 15.3128
2 1 14.7261 15.9775 14.9039
3 1 13.9909 16.1138 14.3163
4 1 13.459 16.8051 13.9806
5 1 13.1562 17.3244 13.2839
6 1 12.5188 17.8095 12.8049
7 1 11.8959 17.9485 12.1677
8 1 11.8902 18.1308 11.2201
9 1 11.8693 18.4459 10.317
10 1 11.7115 19.0704 9.69739
11 1 11.6334 19.8077 9.04446
12 1 11.1073 20.4726 8.60632
13 1 10.6069 20.6062 7.87365
14 1 9.98191 20.9676 7.22482
15 1 9.44557 21.6093 6.85517
16 1 8.95677 22.1965 6.33743
17 1 8.22286 22.2956 5.80729
18 1 7.76401 22.3865 4.97383
19 1 7.16967 22.5891 4.22785
20 1 6.59392 23.0217 3.65004
21 1 6.13138 23.3657 2.89527
22 1 5.88288 24.0114 2.26577
23 1 6.1319 24.8277 1.85591
24 1 6.52626 25.3312 1.20449
25 1 6.62205 25.4592 0.318499
26 1 7.14033 25.7695 -0.406087
27 1 7.3055 26.6007 -0.723568
28 1 7.74206 27.447 -0.509556
29 1 8.20635 28.2678 -0.334563
30 1 8.12436 29.2222 -0.214329
31 1 8.56984 30.0793 -0.112433
32 1 9.35081 30.5768 0.0845941
33 1 10.051 30.9779 -0.37546
34 1 10.2775 31.5376 -1.09997
35 1 10.7718 32.1212 -1.63108
36 1 11.2256 32.8634 -1.90136
37 1 11.7214 33.5479 -2.15716
38 1 12.1092 33.7288 -2.99614
39 1 11.9667 33.8162 -3.95724
40 1 11.5771 33.5031 -4.82175
41 1 11.5859 33.1602 -5.72801
42 1 11.7773 32.8606 -6.64449
43 1 12.141 32.1045 -7.11914
44 1 12.1488 31.5096 -7.78653
45 1 11.8938 30.793 -8.36802
46 1 11.6784 29.8656 -8.36762
47 1 12.3585 29.1874 -8.5629
48 1 12.9858 28.9323 -9.19879
49 1 13.8055 29.1049 -9.60364
50 1 14.5421 29.4367 -10.0105
51 1 15.4828 29.5294 -10.0621
52 1 16.3205 29.7403 -10.4617
53 1 16.8534 30.3534 -10.8591
54 1 17.5069 30.9127 -11.2911
55 1 17.6133 31.4439 -12.0552
56 1 17.1979 31.8616 -12.7712
57 1 16.4776 32.0161 -13.3199
58 1 15.7312 31.5557 -13.7971
59 1 15.0268 30.8544 -13.9214
60 1 14.6972 29.9317 -13.8701
61 1 14.4521 29.0903 -13.5892
62 1 13.7462 28.5455 -13.2886
63 1 13.4627 28.1351 -12.5144
64 1 13.2284 27.675 -11.7529
ITEM: TIMESTEP
2000000
ITEM: NUMBER OF ATOMS
64
ITEM: BOX BOUNDS mm mm mm
-3.2000000000000000e+01 3.2000000000000000e+01
-3.2000000000000000e+01 3.4279646378240166e+01
-3.2000000000000000e+01 3.2000000000000000e+01
ITEM: ATOMS id type x y z
1 1 17.9645 22.0401 6.22481
2 1 17.1022 21.6279 6.32925
3 1 16.1985 21.4972 6.22073
4 1 15.2919 21.3494 6.44455
5 1 14.421 21.153 6.58358
6 1 13.7704 21.6004 7.13752
7 1 13.1561 21.883 7.70098
8 1 12.849 22.5047 8.315
9 1 12.1329 22.8669 8.79044
10 1 11.4767 23.5428 8.73241
11 1 10.8615 24.1959 8.85077
12 1 10.3124 24.9264 9.1411
13 1 9.5435 25.4335 9.21358
14 1 8.81692 25.963 9.48709
15 1 8.18931 26.6728 9.63929
16 1 7.75987 27.2994 9.18004
17 1 7.58423 27.8205 8.41594
18 1 7.25677 28.333 7.7006
19 1 7.48368 28.7143 6.87201
20 1 7.63548 29.145 6.03696
21 1 7.67738 29.4683 5.13393
22 1 7.96137 29.6125 4.26478
23 1 8.09383 29.6325 3.34194
24 1 8.31529 29.9099 2.46468
25 1 8.59347 30.1404 1.5537
26 1 8.78041 30.1907 0.607553
27 1 9.18183 30.4911 -0.236114
28 1 9.14275 30.8411 -1.05768
29 1 9.22105 31.3288 -1.85062
30 1 9.86977 31.7111 -2.41691
31 1 10.422 32.439 -2.27738
32 1 10.8226 33.2996 -2.15193
33 1 11.6486 33.4539 -1.78722
34 1 12.5525 33.5159 -1.65137
35 1 13.422 33.3587 -1.6346
36 1 13.4598 32.788 -2.42825
37 1 13.0895 32.1576 -3.04067
38 1 12.5837 31.6792 -3.57688
39 1 12.1485 31.2068 -4.25896
40 1 11.8665 30.5609 -4.89867
41 1 11.9099 29.8271 -5.43176
42 1 12.238 28.903 -5.51685
43 1 12.7834 28.1897 -5.87522
44 1 13.6769 28.0447 -6.26006
45 1 14.3354 27.9789 -6.93362
46 1 14.8768 27.8912 -7.70815
47 1 15.4958 27.9658 -8.47562
48 1 16.4164 28.0354 -8.72287
49 1 17.2552 27.8819 -9.09033
50 1 18.0406 27.9794 -9.61291
51 1 18.3075 28.1186 -10.4578
52 1 18.106 28.456 -11.3292
53 1 17.594 28.8888 -11.9253
54 1 16.9654 29.1988 -12.5629
55 1 16.353 29.6454 -13.0894
56 1 15.5504 29.9657 -13.4619
57 1 15.3837 30.6964 -14.0866
58 1 15.358 31.218 -14.8423
59 1 15.0293 31.4639 -15.7241
60 1 15.4145 31.6246 -16.5782
61 1 15.8724 32.1215 -17.1355
62 1 15.982 32.7596 -17.8122
63 1 16.1827 33.4305 -18.4301
64 1 16.4634 34.2732 -18.7541
ITEM: TIMESTEP
2010000
ITEM: NUMBER OF ATOMS
64
ITEM: BOX BOUNDS mm mm mm
-3.2000000000000000e+01 3.2000000000000000e+01
-3.2000000000000000e+01 3.4883296703032279e+01
-3.2000000000000000e+01 3.2000000000000000e+01
ITEM: ATOMS id type x y z
1 1 8.74124 17.4662 12.0778
2 1 9.22352 17.4393 11.3141
3 1 9.68967 17.3229 10.4578
4 1 10.1751 17.1952 9.67533
5 1 10.513 17.4285 8.82369
6 1 11.2836 17.8353 8.39404
7 1 11.9551 18.4859 8.25458
8 1 12.3991 19.2123 7.90324
9 1 12.5521 20.1221 7.75077
10 1 12.6023 20.8253 7.14876
11 1 12.6622 21.731 6.82289
12 1 12.4321 22.5158 6.3358
13 1 11.6365 22.8083 5.92382
14 1 11.0754 23.5273 5.66829
15 1 10.5794 24.3091 5.49168
16 1 10.6046 25.1513 5.14628
17 1 10.5426 26.0679 4.90947
18 1 10.1751 26.9317 4.68308
19 1 10.0642 27.7818 4.38165
20 1 10.0648 28.6837 4.42863
21 1 10.5325 29.4135 3.99327
22 1 11.1008 30.0157 3.56771
23 1 11.7927 30.4335 3.07105
24 1 12.2713 31.2175 2.95959
25 1 12.8268 32.0154 2.90262
26 1 12.7639 32.7753 2.34245
27 1 12.8737 33.4881 1.76077
28 1 12.8978 34.2916 1.23394
29 1 12.797 34.8768 0.530337
30 1 12.754 34.7707 -0.343628
31 1 12.6162 34.4663 -1.17797
32 1 12.8379 33.8499 -1.86753
33 1 13.4196 33.4574 -2.62697
34 1 13.9065 33.2786 -3.41783
35 1 14.3711 32.949 -4.16754
36 1 14.2332 32.5329 -4.98221
37 1 13.8891 32.2349 -5.80718
38 1 13.8184 31.6319 -6.54656
39 1 14.0445 31.0603 -7.21692
40 1 13.8624 30.2035 -7.67571
41 1 13.4606 29.4191 -7.98374
42 1 12.7771 28.7776 -7.92657
43 1 11.9557 28.4105 -8.31779
44 1 11.236 27.9752 -8.6798
45 1 10.3619 27.8111 -9.08497
46 1 9.52313 27.4779 -9.38024
47 1 8.7167 27.4203 -9.85247
48 1 8.18983 27.535 -10.5749
49 1 7.91261 28.2068 -11.2083
50 1 7.73443 28.92 -11.7815
51 1 8.54776 29.3188 -12.1094
52 1 9.44017 29.6445 -12.3111
53 1 10.38 29.7086 -12.1276
54 1 11.2982 29.7093 -11.965
55 1 12.2148 29.6727 -11.743
56 1 13.0985 29.6812 -11.4828
57 1 13.7698 29.9607 -10.942
58 1 13.593 30.3283 -10.0907
59 1 12.9543 30.7605 -9.58653
60 1 12.3993 30.9543 -8.87286
61 1 11.8403 31.2013 -8.12409
62 1 11.3446 31.3509 -7.35111
63 1 11.2607 31.8453 -6.5948
64 1 11.7541 31.989 -5.80098
ITEM: TIMESTEP
2020000
ITEM: NUMBER OF ATOMS
64
ITEM: BOX BOUNDS mm mm mm
-3.2000000000000000e+01 3.2000000000000000e+01
-3.2000000000000000e+01 3.8013807971290966e+01
-3.2000000000000000e+01 3.2000000000000000e+01
ITEM: ATOMS id type x y z
1 1 4.78757 25.0144 7.6157
2 1 5.32965 24.8813 6.82959
3 1 5.4687 24.8477 5.91951
4 1 5.8964 24.6622 5.07363
5 1 6.07227 24.5386 4.15386
6 1 6.75833 24.6218 3.51029
7 1 7.59139 24.4109 3.00018
8 1 8.41659 24.4066 2.46395
9 1 9.32092 24.203 2.37658
10 1 10.1627 24.2155 1.92975
11 1 10.9267 24.4867 1.5092
12 1 11.4983 24.9139 0.872154
13 1 12.272 25.2955 0.599636
14 1 12.8618 25.7468 0.0272086
15 1 13.729 26.1624 0.0743456
16 1 14.1022 27.0443 0.210979
17 1 13.5503 27.7872 0.4192
18 1 12.9694 28.6165 0.548692
19 1 12.134 29.0307 0.335071
20 1 11.4283 29.3487 0.855416
21 1 10.5305 29.4784 1.1147
22 1 9.72909 29.7303 0.762091
23 1 9.44654 30.3949 0.162407
24 1 9.00811 30.9789 -0.476445
25 1 8.63335 31.7753 -0.73368
26 1 8.56465 32.212 -1.60563
27 1 8.56566 32.5094 -2.51975
28 1 8.82159 32.6358 -3.47277
29 1 9.55564 32.2838 -3.94098
30 1 10.0805 32.2654 -4.73329
31 1 10.9386 32.1676 -5.13174
32 1 11.6286 31.9188 -5.73471
33 1 11.9066 32.0885 -6.66185
34 1 12.021 31.8315 -7.56009
35 1 12.2546 31.68 -8.44231
36 1 11.6781 31.3021 -9.13613
37 1 11.5695 30.9081 -10.0325
38 1 11.2386 30.2878 -10.6695
39 1 11.3788 29.7902 -11.4248
40 1 11.4756 29.0923 -12.0137
41 1 11.9069 28.2991 -12.3719
42 1 12.2503 27.6183 -12.8619
43 1 12.8905 27.2757 -13.4121
44 1 13.7701 27.2273 -13.6793
45 1 14.7726 27.2364 -13.7126
46 1 15.607 27.6619 -13.725
47 1 16.4529 28.0186 -13.4607
48 1 17.0973 28.6591 -13.5578
49 1 17.552 29.4323 -13.437
50 1 18.2226 30.0213 -13.219
51 1 18.5164 30.8698 -12.7649
52 1 18.2961 31.5829 -12.2845
53 1 18.4588 32.1418 -11.5206
54 1 18.485 32.589 -10.7196
55 1 18.2593 33.2537 -10.1035
56 1 17.7311 33.7232 -9.53177
57 1 17.0537 34.301 -9.30032
58 1 16.4339 35.0469 -9.26401
59 1 15.5928 35.5774 -9.24226
60 1 14.9523 36.1009 -9.69281
61 1 14.0423 36.214 -9.7385
62 1 13.4593 36.9794 -9.57627
63 1 12.7363 37.4208 -9.23353
64 1 12.3897 38.0073 -8.60952
ITEM: TIMESTEP
2030000
ITEM: NUMBER OF ATOMS
64
ITEM: BOX BOUNDS mm mm mm
-3.2000000000000000e+01 3.2000000000000000e+01
-3.2000000000000000e+01 3.7150438376559201e+01
-3.2000000000000000e+01 3.2000000000000000e+01
ITEM: ATOMS id type x y z
1 1 0.907941 24.6083 1.10568
2 1 1.67618 25.1677 1.25018
3 1 2.4978 25.1753 1.74776
4 1 3.42169 25.3308 1.92032
5 1 3.98368 25.8086 2.48313
6 1 4.87111 26.1535 2.77445
7 1 5.61074 26.7527 2.90896
8 1 6.33537 27.3241 2.9132
9 1 7.01243 27.8836 3.14162
10 1 7.72633 28.3726 2.73494
11 1 8.29433 28.6722 2.09056
12 1 9.04185 28.7086 1.47691
13 1 9.96752 28.721 1.48553
14 1 10.87 28.8572 1.69453
15 1 11.5942 29.3266 2.07402
16 1 12.3834 29.6442 2.43363
17 1 13.0538 30.3035 2.56968
18 1 13.7297 30.9598 2.43916
19 1 14.3326 31.6698 2.34973
20 1 15.0566 32.2366 2.03777
21 1 15.67 32.352 1.32163
22 1 16.0688 32.7223 0.592537
23 1 15.9503 32.7162 -0.339788
24 1 15.5486 32.4982 -1.12368
25 1 15.1991 32.0781 -1.88487
26 1 14.8367 31.7161 -2.74526
27 1 15.0517 31.5211 -3.58058
28 1 15.5202 31.3457 -4.34093
29 1 15.5937 30.9671 -5.11886
30 1 15.5344 30.6525 -5.95612
31 1 15.476 29.8711 -6.45303
32 1 15.3096 29.3571 -7.23067
33 1 14.9817 28.7648 -7.92655
34 1 14.9248 28.1378 -8.60671
35 1 15.1486 27.4034 -9.1723
36 1 15.641 27.0901 -9.94567
37 1 16.3797 27.5056 -10.4149
38 1 16.8701 27.9505 -11.1026
39 1 17.5999 28.6472 -11.2211
40 1 18.5232 29.0703 -11.3292
41 1 19.3581 29.5093 -11.1487
42 1 19.5938 29.9609 -10.3509
43 1 19.916 30.2941 -9.54783
44 1 19.9441 30.3571 -8.56397
45 1 19.8782 30.6479 -7.70504
46 1 19.9326 30.7911 -6.78226
47 1 19.4858 31.2547 -6.11809
48 1 18.6098 31.4204 -5.67336
49 1 17.7625 31.9516 -5.46913
50 1 17.1892 32.5735 -5.87466
51 1 16.6696 32.9567 -6.58144
52 1 16.0598 33.4661 -7.08485
53 1 15.5025 33.976 -7.64665
54 1 15.5906 34.8032 -8.06734
55 1 15.0407 35.4784 -8.47206
56 1 14.2307 35.5743 -8.04178
57 1 13.7057 36.0615 -7.454
58 1 12.9526 36.0409 -6.90841
59 1 12.343 36.1517 -6.1935
60 1 11.8135 36.7782 -5.69337
61 1 11.128 37.0228 -5.10369
62 1 10.229 36.8176 -5.06198
63 1 9.26332 36.8153 -4.97298
64 1 8.46238 37.144 -4.69265
ITEM: TIMESTEP
2040000
ITEM: NUMBER OF ATOMS
64
ITEM: BOX BOUNDS mm mm mm
-3.2000000000000000e+01 3.2000000000000000e+01
-3.2000000000000000e+01 3.8618780123553812e+01
-3.2000000000000000e+01 3.2000000000000000e+01
ITEM: ATOMS id type x y z
1 1 8.92306 22.5292 -2.65383
2 1 8.62575 22.5862 -1.73708
3 1 8.10502 22.5213 -0.941194
4 1 7.79333 22.7406 -0.0590094
5 1 7.56415 23.2508 0.701031
6 1 7.41675 23.8788 1.3412
7 1 7.46672 24.8048 1.59383
8 1 7.65846 25.7425 1.76125
9 1 7.76552 26.7154 1.70838
10 1 7.95141 27.5347 1.29328
11 1 8.10085 28.4002 1.00643
12 1 8.25275 29.303 1.2231
13 1 8.46284 30.138 1.71224
14 1 8.68077 30.8664 2.31728
15 1 8.71601 31.825 2.18211
16 1 9.26569 32.5885 2.00786
17 1 9.93463 32.9097 1.40035
18 1 10.6306 33.4147 1.00724
19 1 11.4782 33.7118 1.03309
20 1 12.237 34.1679 1.37602
21 1 13.0151 34.5762 1.61025
22 1 13.7574 34.4022 0.956705
23 1 14.5994 34.3585 0.618744
24 1 15.2824 34.6699 0.0111105
25 1 16.1277 35.0325 -0.193006
26 1 16.8289 35.5887 0.0615217
27 1 17.6317 35.6677 -0.369709
28 1 18.4232 35.8335 -0.879118
29 1 18.5093 35.5086 -1.72912
30 1 18.7699 34.9503 -2.45958
31 1 18.7241 34.1962 -3.11874
32 1 18.4722 33.5011 -3.77671
33 1 18.5714 32.7663 -4.3015
34 1 19.0162 32.1091 -4.76498
35 1 19.3123 31.6242 -5.49566
36 1 19.4431 30.8548 -5.99609
37 1 19.1968 29.9267 -6.17399
38 1 18.7288 29.3773 -6.84104
39 1 18.0458 29.0831 -7.35948
40 1 17.3782 28.6752 -7.88508
41 1 16.5544 28.2865 -8.09838
42 1 15.7129 28.2804 -8.50229
43 1 15.1881 28.9842 -8.71073
44 1 14.8051 29.8535 -8.73236
45 1 14.6731 30.7693 -8.71035
46 1 14.6433 31.6851 -8.91253
47 1 14.5076 32.6314 -8.83747
48 1 13.8872 33.378 -8.56586
49 1 13.6279 34.1622 -8.15893
50 1 13.1846 35.0122 -8.06615
51 1 12.2919 35.3663 -7.85878
52 1 11.5832 35.9582 -7.83509
53 1 10.9657 36.6835 -7.9542
54 1 10.4546 37.4702 -7.88176
55 1 10.0519 38.3214 -8.07371
56 1 9.16185 38.5727 -8.35749
57 1 8.25944 38.6123 -8.58547
58 1 7.47485 38.1551 -8.76565
59 1 6.63478 38.1442 -9.11732
60 1 5.92586 38.019 -9.76346
61 1 5.05971 37.658 -9.82633
62 1 4.17563 37.3742 -9.55136
63 1 3.29727 36.9394 -9.51581
64 1 2.49329 37.0896 -9.18685
ITEM: TIMESTEP
2050000
ITEM: NUMBER OF ATOMS
64
ITEM: BOX BOUNDS mm mm mm
-3.2000000000000000e+01 3.2000000000000000e+01
-3.2000000000000000e+01 3.7531071013051324e+01
-3.2000000000000000e+01 3.2000000000000000e+01
ITEM: ATOMS id type x y z
1 1 7.40557 17.4287 2.98471
2 1 7.80706 18.2983 2.96853
3 1 7.46928 19.2601 2.91138
4 1 7.75559 20.1796 2.73207
5 1 8.00301 21.0148 2.49583
6 1 8.53346 21.8067 2.51532
7 1 8.56547 22.5856 3.01461
8 1 8.45752 23.3758 3.48748
9 1 8.22037 23.4342 4.37079
10 1 8.22427 24.145 5.0606
11 1 8.62013 24.704 5.68897
12 1 8.54081 25.1158 6.49322
13 1 8.29132 25.6774 7.17686
14 1 8.00742 26.2303 7.85895
15 1 8.25342 26.7986 8.50834
16 1 8.74931 27.6085 8.1828
17 1 9.00072 28.4434 7.76292
18 1 9.20877 28.7721 6.92694
19 1 9.82552 28.9644 6.24128
20 1 10.4747 29.0174 5.57506
21 1 10.8471 29.3783 4.74274
22 1 11.4097 29.2748 4.0376
23 1 11.6222 29.8208 3.34687
24 1 11.8985 30.4287 2.71824
25 1 12.2469 31.081 2.16374
26 1 12.666 31.772 1.618
27 1 13.0709 32.1889 0.820696
28 1 13.8437 32.3877 0.278814
29 1 14.6329 32.7996 0.0234796
30 1 15.4999 33.2331 -0.120993
31 1 16.4331 33.0622 -0.380413
32 1 17.35 32.9775 -0.522504
33 1 18.1825 33.0703 -0.946998
34 1 18.9615 33.1893 -1.47125
35 1 19.4648 32.8407 -2.174
36 1 19.7225 32.2138 -2.86426
37 1 19.5555 31.8548 -3.71453
38 1 18.9831 31.6657 -4.45124
39 1 18.1979 31.3935 -4.87718
40 1 17.2726 31.3902 -5.04931
41 1 16.5056 31.0934 -5.39468
42 1 15.9343 30.3813 -5.75298
43 1 15.3462 29.7022 -5.69154
44 1 14.4685 29.3529 -5.56534
45 1 13.5908 29.0804 -5.19102
46 1 12.7478 28.663 -5.30914
47 1 11.9431 28.3538 -5.68072
48 1 11.0371 28.5725 -5.8497
49 1 10.1535 28.7665 -5.69743
50 1 9.45269 29.322 -5.89846
51 1 9.14194 30.0059 -6.53717
52 1 8.51527 30.5082 -7.05297
53 1 7.85101 31.0574 -7.41342
54 1 7.81233 31.6574 -8.09912
55 1 7.80395 32.4586 -8.62096
56 1 7.91998 33.3675 -8.41974
57 1 8.19155 34.2096 -8.82152
58 1 8.20009 34.9242 -9.4276
59 1 8.46432 35.6812 -9.84107
60 1 8.8723 36.1045 -10.6069
61 1 9.02669 36.7165 -11.284
62 1 8.58516 36.8617 -12.0801
63 1 8.39785 37.2923 -12.9032
64 1 8.07971 37.5246 -13.7953
ITEM: TIMESTEP
2060000
ITEM: NUMBER OF ATOMS
64
ITEM: BOX BOUNDS mm mm mm
-3.2000000000000000e+01 3.2000000000000000e+01
-3.2000000000000000e+01 3.7105000556312859e+01
-3.2000000000000000e+01 3.2000000000000000e+01
ITEM: ATOMS id type x y z
1 1 9.12132 15.5624 -1.33085
2 1 9.2505 16.514 -1.47899
3 1 9.23753 17.3865 -0.974822
4 1 9.02189 18.047 -0.355249
5 1 9.0258 18.722 0.299929
6 1 9.09186 19.5831 0.76726
7 1 9.46054 20.3486 1.03977
8 1 9.51757 21.104 1.64842
9 1 9.9409 21.7236 2.1894
10 1 10.1126 22.5504 2.61602
11 1 9.71517 23.0796 3.38074
12 1 9.53773 23.422 4.26231
13 1 9.50033 24.1457 4.80651
14 1 9.7 25.0595 4.82458
15 1 9.74773 25.9483 4.88757
16 1 10.0618 26.8292 5.16286
17 1 10.7982 27.3681 5.39419
18 1 11.5557 27.8943 5.42777
19 1 12.2786 28.418 5.63788
20 1 13.1521 28.8617 5.91589
21 1 13.7787 29.2756 6.53626
22 1 14.6674 29.2659 6.79924
23 1 15.5804 29.0482 6.72758
24 1 16.3309 28.5095 6.40943
25 1 17.0168 28.0267 6.02614
26 1 17.5094 27.2215 6.06891
27 1 17.5485 26.2992 6.24481
28 1 17.1016 25.4998 6.48327
29 1 16.7376 24.7159 6.13327
30 1 16.5174 24.4287 5.20241
31 1 16.1551 24.1728 4.39658
32 1 15.9791 24.3316 3.51153
33 1 15.5648 24.6267 2.71225
34 1 15.4286 25.314 2.12397
35 1 15.4323 25.8294 1.39971
36 1 15.6949 26.6512 0.991044
37 1 15.8746 27.4497 0.448765
38 1 16.1645 28.3013 0.0125096
39 1 16.0135 29.2639 0.0692298
40 1 15.7155 30.1716 -0.12813
41 1 15.1917 30.8835 -0.462069
42 1 14.6238 31.5978 -0.32129
43 1 14.0647 32.3982 -0.452208
44 1 13.6091 33.0484 -0.919969
45 1 12.7808 33.5197 -0.827356
46 1 11.9961 34.0369 -0.691077
47 1 11.0207 34.0566 -0.717166
48 1 10.513 33.4761 -1.18192
49 1 10.2107 32.6123 -1.36822
50 1 9.96789 31.752 -1.58898
51 1 9.72035 31.1292 -2.23974
52 1 9.70747 30.6777 -3.0073
53 1 9.70269 30.6558 -3.98359
54 1 9.86978 30.8428 -4.94657
55 1 10.0469 30.9151 -5.8391
56 1 9.97399 31.4112 -6.68699
57 1 10.4756 32.0743 -7.1054
58 1 11.3397 32.4382 -7.41265
59 1 11.6737 33.1373 -7.95997
60 1 11.9894 33.8788 -8.5146
61 1 12.5245 34.6748 -8.78428
62 1 12.5717 35.5143 -9.15814
63 1 12.8923 36.4083 -9.20298
64 1 13.3991 37.0985 -9.5102
ITEM: TIMESTEP
2070000
ITEM: NUMBER OF ATOMS
64
ITEM: BOX BOUNDS mm mm mm
-3.2000000000000000e+01 3.2000000000000000e+01
-3.2000000000000000e+01 3.5820776115430895e+01
-3.2000000000000000e+01 3.2000000000000000e+01
ITEM: ATOMS id type x y z
1 1 4.96585 19.6863 0.794262
2 1 5.45396 20.3107 1.28341
3 1 6.05708 20.9038 1.72111
4 1 6.39543 21.7776 1.87405
5 1 6.7038 22.6981 1.88179
6 1 7.28232 23.3012 1.3895
7 1 8.17164 23.4817 1.21162
8 1 8.7115 24.2045 1.4908
9 1 9.35443 24.8431 1.35376
10 1 9.8752 25.4764 1.83208
11 1 10.3673 26.2507 2.23139
12 1 10.9413 26.8239 2.6664
13 1 11.6834 27.1863 3.06515
14 1 12.2736 27.509 3.72435
15 1 12.938 27.383 4.35979
16 1 13.7865 27.3897 4.81584
17 1 14.6432 27.2439 5.16267
18 1 14.7477 27.7745 5.93959
19 1 15.0679 27.939 6.75258
20 1 14.7494 28.1358 7.61559
21 1 14.4395 28.2661 8.50561
22 1 14.6365 27.6041 9.09439
23 1 14.7955 26.6378 9.17317
24 1 15.2657 25.8548 8.95135
25 1 15.4609 25.0112 8.5703
26 1 15.4141 24.328 7.90992
27 1 15.0372 23.5664 7.5133
28 1 14.4852 23.3224 6.7121
29 1 14.1535 23.2242 5.84242
30 1 14.3208 23.4887 5.00892
31 1 14.5968 23.9739 4.25952
32 1 14.5406 24.3252 3.41417
33 1 14.5466 24.6149 2.52753
34 1 14.4125 25.3754 2.01386
35 1 14.577 25.4339 1.09488
36 1 14.611 25.2976 0.133467
37 1 14.4434 25.2318 -0.779609
38 1 14.9219 25.3677 -1.59825
39 1 15.5319 24.8251 -2.12009
40 1 15.9392 24.6218 -2.94632
41 1 15.7757 24.2832 -3.80884
42 1 15.2571 24.1263 -4.54212
43 1 14.5425 23.9257 -5.13491
44 1 13.9298 24.0471 -5.88962
45 1 13.6039 24.8981 -5.99478
46 1 12.9724 25.581 -5.67944
47 1 12.2597 26.2689 -5.52052
48 1 11.5158 26.7811 -5.34739
49 1 10.9177 27.0816 -5.99426
50 1 10.2562 27.2623 -6.63145
51 1 9.61258 27.9549 -6.79924
52 1 8.87052 28.6268 -6.66718
53 1 8.51016 29.5323 -6.64227
54 1 8.62533 30.3284 -7.15003
55 1 8.56171 31.2462 -7.30102
56 1 8.73129 32.1664 -7.12631
57 1 9.44791 32.73 -7.03554
58 1 10.0599 33.4482 -6.84915
59 1 10.6934 34.0849 -6.80807
60 1 11.3194 34.7328 -6.41818
61 1 12.0984 34.6495 -5.8951
62 1 12.8635 35.1024 -5.61529
63 1 13.6762 35.3745 -5.268
64 1 14.462 35.8143 -4.97845
ITEM: TIMESTEP
2080000
ITEM: NUMBER OF ATOMS
64
ITEM: BOX BOUNDS mm mm mm
-3.2000000000000000e+01 3.2000000000000000e+01
-3.2000000000000000e+01 3.3361671438943645e+01
-3.2000000000000000e+01 3.2000000000000000e+01
ITEM: ATOMS id type x y z
1 1 13.7608 27.5088 8.14811
2 1 13.079 26.8376 8.07431
3 1 12.3443 26.4888 7.62959
4 1 11.5688 26.0256 7.52093
5 1 10.9626 25.3805 7.33976
6 1 10.3739 25.1967 6.64251
7 1 10.1164 24.845 5.78719
8 1 10.2738 24.3208 5.06129
9 1 10.2535 23.813 4.29625
10 1 10.2168 23.0717 3.71499
11 1 10.6032 22.4862 3.11892
12 1 11.5219 22.1987 3.00058
13 1 12.4426 22.2996 2.90606
14 1 13.3419 22.1735 2.9291
15 1 14.2981 22.2684 3.01708
16 1 14.9682 21.9072 2.50251
17 1 15.8603 22.0247 2.43203
18 1 16.4802 22.543 2.98062
19 1 16.9906 23.3415 3.21639
20 1 17.5173 24.1974 2.97229
21 1 17.9495 25.0494 2.85008
22 1 18.5069 25.7891 2.93526
23 1 19.253 26.3144 2.73612
24 1 19.5124 26.4871 1.89923
25 1 19.8642 26.2572 0.948221
26 1 20.0574 25.2924 0.81192
27 1 19.855 24.3904 0.759212
28 1 19.2184 23.7723 0.918522
29 1 18.3801 23.4238 1.09704
30 1 17.4384 23.2837 1.10035
31 1 16.5626 23.3799 0.861194
32 1 15.7305 22.9148 0.707858
33 1 14.9046 22.5154 0.520449
34 1 14.0832 22.1823 0.138127
35 1 13.3766 21.9695 -0.441118
36 1 12.5817 21.7761 -0.884807
37 1 11.7354 21.9382 -1.24191
38 1 11.0455 21.6757 -1.81399
39 1 10.5182 21.7233 -2.63077
40 1 9.89632 21.4553 -3.26407
41 1 10.3129 21.5987 -4.04371
42 1 10.8861 22.2967 -4.33784
43 1 10.6907 23.1594 -4.67864
44 1 10.3941 23.8153 -5.28309
45 1 10.59 24.3087 -6.10272
46 1 11.1722 24.5346 -6.80588
47 1 11.8212 24.7056 -7.43632
48 1 12.5446 25.1751 -7.90747
49 1 13.1932 25.7991 -8.13438
50 1 13.2316 26.2011 -7.2994
51 1 13.3941 26.8968 -6.66211
52 1 13.7315 27.7577 -6.50011
53 1 14.0355 28.589 -6.26783
54 1 14.3082 29.3941 -5.9932
55 1 13.9572 30.1501 -6.46715
56 1 13.7811 30.819 -7.12111
57 1 13.6849 31.5749 -7.63158
58 1 14.1038 31.8716 -8.41479
59 1 14.8002 31.9917 -9.06747
60 1 15.6276 32.2569 -9.43741
61 1 16.4496 32.4164 -9.85816
62 1 17.0713 32.8532 -10.3307
63 1 17.7948 33.2138 -10.7793
64 1 18.4263 33.3552 -11.4458
ITEM: TIMESTEP
2090000
ITEM: NUMBER OF ATOMS
64
ITEM: BOX BOUNDS mm mm mm
-3.2000000000000000e+01 3.2000000000000000e+01
-3.2000000000000000e+01 3.2000000000000000e+01
-3.2000000000000000e+01 3.2000000000000000e+01
ITEM: ATOMS id type x y z
1 1 9.17941 24.8115 7.66303
2 1 9.45211 25.562 8.21946
3 1 10.0324 26.3203 8.26289
4 1 10.8922 26.5799 8.02365
5 1 11.2358 25.9936 7.38662
6 1 11.8219 25.4261 6.94623
7 1 12.5682 24.8062 6.77069
8 1 13.2727 24.2069 6.57877
9 1 14.1203 23.9881 6.27478
10 1 14.8791 23.7326 5.78102
11 1 15.4658 23.0608 5.5001
12 1 16.3581 22.8313 5.24582
13 1 17.2342 22.7765 4.83551
14 1 18.0666 22.9028 4.39756
15 1 18.9459 22.7226 4.11806
16 1 19.7269 22.4209 3.64512
17 1 20.2236 22.1119 2.90829
18 1 20.5541 21.4639 2.20672
19 1 21.0484 21.3232 1.44682
20 1 21.0543 21.0779 0.516851
21 1 20.5774 20.6475 -0.172429
22 1 20.0551 20.6449 -0.996248
23 1 19.5023 20.9348 -1.69929
24 1 19.0393 21.5342 -2.26829
25 1 18.2573 21.5659 -2.72928
26 1 17.4833 21.2715 -3.24845
27 1 16.7413 20.7388 -3.13394
28 1 16.1506 20.1044 -3.41976
29 1 15.5208 19.4459 -3.69209
30 1 14.8627 18.8264 -4.10835
31 1 14.0229 18.6207 -4.56413
32 1 13.4376 18.4351 -5.35132
33 1 12.8285 18.4184 -6.00337
34 1 11.9552 18.6447 -6.48423
35 1 11.1251 19.0176 -6.77563
36 1 10.3315 19.5163 -6.90096
37 1 9.77198 20.2791 -6.8143
38 1 8.95854 20.7888 -6.78159
39 1 8.36884 21.4432 -6.90678
40 1 8.73574 22.2442 -7.24414
41 1 9.04753 23.0277 -7.65962
42 1 9.70157 23.5778 -8.08168
43 1 10.314 24.0881 -8.68391
44 1 11.2116 23.7753 -8.58537
45 1 12.1574 23.6484 -8.75087
46 1 13.0415 23.2457 -8.95263
47 1 13.8613 23.7122 -8.92247
48 1 14.4568 24.251 -9.42793
49 1 15.285 24.6175 -9.64734
50 1 16.1702 24.9886 -9.74749
51 1 17.0831 25.195 -9.61249
52 1 17.9556 25.0217 -9.82393
53 1 18.8238 24.7636 -9.60749
54 1 19.3838 24.2353 -9.04793
55 1 19.4698 24.5051 -8.12914
56 1 19.2836 24.6268 -7.2166
57 1 19.0864 24.8579 -6.28315
58 1 18.3259 24.8296 -5.74118
59 1 17.4742 24.6495 -5.39365
60 1 16.6137 24.5188 -5.12412
61 1 15.8797 24.2737 -4.60013
62 1 15.0761 24.341 -4.05909
63 1 14.1211 24.5728 -3.87621
64 1 13.4109 25.1534 -3.58181
ITEM: TIMESTEP
2100000
ITEM: NUMBER OF ATOMS
64
ITEM: BOX BOUNDS mm mm mm
-3.2000000000000000e+01 3.2000000000000000e+01
-3.2000000000000000e+01 3.2000000000000000e+01
-3.2000000000000000e+01 3.2000000000000000e+01
ITEM: ATOMS id type x y z
1 1 13.1249 27.722 9.53728
2 1 13.929 27.81 9.99278
3 1 14.8372 27.7375 9.99289
4 1 15.6871 28.0459 10.0729
5 1 16.54 28.1727 9.69338
6 1 17.3393 27.8539 9.16265
7 1 18.0052 27.3828 8.61664
8 1 18.6168 26.8792 8.0859
9 1 18.8521 26.6298 7.22876
10 1 19.1449 25.9151 6.66903
11 1 19.4791 25.3384 6.01838
12 1 19.8217 24.465 5.71154
13 1 19.5593 23.5908 5.6838
14 1 19.7894 23.1017 4.89751
15 1 19.328 23.1674 4.0929
16 1 18.9887 23.0773 3.21707
17 1 18.6694 23.0276 2.33897
18 1 17.9366 23.1827 1.75621
19 1 17.1806 23.3367 1.15393
20 1 16.4641 23.1875 0.520059
21 1 16.228 22.7151 -0.261645
22 1 16.2326 22.1508 -1.03453
23 1 16.1314 21.8872 -1.9431
24 1 15.9533 21.3825 -2.82589
25 1 15.3726 20.8886 -3.31679
26 1 14.5981 20.4123 -3.6455
27 1 13.7614 20.2519 -4.08077
28 1 13.3524 19.8073 -4.78465
29 1 12.9286 19.2025 -5.36097
30 1 12.6253 18.5658 -5.97299
31 1 12.3449 17.8923 -6.54018
32 1 11.738 17.177 -6.85553
33 1 11.1961 16.4368 -6.65932
34 1 10.2475 16.296 -6.41982
35 1 9.55496 16.6559 -5.8649
36 1 8.70907 17.1023 -5.69397
37 1 7.99085 17.5103 -5.27287
38 1 7.38527 18.1098 -4.77544
39 1 7.5971 18.8897 -4.34294
40 1 7.71353 19.7246 -3.95216
41 1 8.13331 20.1421 -3.20607
42 1 7.98652 20.8286 -2.55399
43 1 7.71605 21.709 -2.29867
44 1 7.2789 22.5981 -2.31614
45 1 7.68995 23.3023 -1.77005
46 1 7.99083 23.7846 -0.978753
47 1 7.9776 24.7003 -0.671156
48 1 8.48674 25.2874 -0.195144
49 1 9.23003 25.3459 0.458893
50 1 9.95195 25.5338 0.993911
51 1 10.7398 25.6413 1.56174
52 1 11.6432 25.9032 1.67475
53 1 12.3362 26.5758 1.91778
54 1 12.7931 26.801 1.12824
55 1 13.6752 26.7632 0.847799
56 1 14.4919 26.9694 1.208
57 1 15.3194 27.1929 1.46085
58 1 15.8608 27.02 2.19443
59 1 15.989 27.2885 3.07762
60 1 16.1583 27.7179 3.87161
61 1 16.1777 28.4789 4.43308
62 1 15.9223 29.3586 4.55755
63 1 15.3991 29.9949 5.07452
64 1 14.7466 30.2604 5.73957
ITEM: TIMESTEP
2110000
ITEM: NUMBER OF ATOMS
64
ITEM: BOX BOUNDS mm mm mm
-3.2000000000000000e+01 3.2000000000000000e+01
-3.2000000000000000e+01 3.2642013104166274e+01
-3.2000000000000000e+01 3.2000000000000000e+01
ITEM: ATOMS id type x y z
1 1 13.5802 32.6355 7.03406
2 1 13.5252 31.9069 6.4466
3 1 14.054 31.3689 5.9133
4 1 14.3248 31.1969 5.04895
5 1 14.7163 31.0377 4.18202
6 1 14.9971 30.2981 3.63336
7 1 15.3128 29.4892 3.2683
8 1 15.8659 28.744 3.04767
9 1 16.1381 27.9045 2.76241
10 1 16.5724 27.1153 2.53744
11 1 17.0505 26.5159 1.96517
12 1 17.2141 25.5904 1.69789
13 1 17.6226 24.7138 1.72228
14 1 17.9003 23.929 1.30978
15 1 17.9714 23.4544 0.533178
16 1 17.5817 22.7393 0.0663432
17 1 17.1086 22.6038 -0.745922
18 1 16.9942 22.5177 -1.72796
19 1 17.2487 21.9009 -2.38188
20 1 17.3577 21.1676 -3.00489
21 1 17.4466 20.4332 -3.58436
22 1 17.4099 19.8652 -4.31285
23 1 17.5107 19.0777 -4.93332
24 1 17.1442 18.2854 -5.32373
25 1 16.5489 17.6188 -5.57518
26 1 16.2633 16.9727 -6.19259
27 1 16.011 16.382 -6.96588
28 1 15.7286 15.9959 -7.76989
29 1 15.2761 15.1979 -8.12742
30 1 14.8211 15.0228 -8.9241
31 1 14.798 14.6981 -9.884
32 1 15.1029 14.0664 -10.5017
33 1 14.3038 13.6291 -10.6173
34 1 13.5436 13.0897 -10.6435
35 1 12.9965 12.3465 -10.7212
36 1 12.2118 12.8299 -10.5433
37 1 11.5442 13.2682 -10.037
38 1 10.889 13.7249 -9.52513
39 1 10.2941 14.0534 -8.91417
40 1 9.83658 14.5757 -8.27885
41 1 9.79664 15.137 -7.50224
42 1 9.72207 15.8768 -6.96993
43 1 9.61022 16.7732 -6.82282
44 1 9.6294 17.5875 -6.27429
45 1 9.86861 17.9637 -5.45278
46 1 9.41278 18.2304 -4.66801
47 1 8.90678 18.2903 -3.89269
48 1 8.594 18.4909 -2.98221
49 1 8.5857 18.6161 -1.99324
50 1 8.85001 18.6655 -1.09625
51 1 9.45402 18.7149 -0.292336
52 1 10.1112 18.9853 0.361595
53 1 10.712 19.0863 1.05994
54 1 11.1314 19.1558 1.94916
55 1 11.2842 19.6309 2.76466
56 1 11.7952 20.1362 3.43463
57 1 12.2181 20.5309 4.12846
58 1 12.0755 20.5312 5.02144
59 1 11.5837 20.8811 5.76805
60 1 11.0744 21.4663 6.28508
61 1 10.56 22.1981 6.6816
62 1 10.4429 23.0259 7.17831
63 1 10.3829 23.9723 7.21798
64 1 10.1013 24.504 6.51187
ITEM: TIMESTEP
2120000
ITEM: NUMBER OF ATOMS
64
ITEM: BOX BOUNDS mm mm mm
-3.2000000000000000e+01 3.2000000000000000e+01
-3.2000000000000000e+01 3.2000000000000000e+01
-3.2000000000000000e+01 3.2000000000000000e+01
ITEM: ATOMS id type x y z
1 1 6.47034 27.6092 1.79323
2 1 7.24641 28.0477 1.53223
3 1 8.20177 28.1585 1.25222
4 1 8.98996 28.3223 0.758625
5 1 9.60319 28.077 0.103724
6 1 9.97662 27.8721 -0.767688
7 1 10.5373 27.2641 -1.31252