ITEM: TIMESTEP
550000
ITEM: NUMBER OF ATOMS
64
ITEM: BOX BOUNDS mm mm mm
-3.2000000000000000e+01 3.2000000000000000e+01
-3.2000000000000000e+01 3.2000000000000000e+01
-3.2000000000000000e+01 3.2000000000000000e+01
ITEM: ATOMS id type x y z
1 1 6.09252 23.2131 -12.2752
2 1 6.20653 24.0488 -11.7704
3 1 5.97115 24.7227 -11.2223
4 1 5.88569 25.6978 -11.2735
5 1 6.76815 26.0343 -11.1095
6 1 7.20904 26.1073 -10.2992
7 1 7.39981 25.2121 -10.3274
8 1 6.99926 24.4275 -10.7017
9 1 6.07108 24.1673 -10.3776
10 1 5.95449 24.6951 -9.66238
11 1 6.48066 24.8644 -8.90313
12 1 7.26542 25.1658 -8.56844
13 1 7.92069 25.3926 -9.13874
14 1 8.7494 24.9429 -8.85713
15 1 9.04128 24.0881 -8.4431
16 1 9.80031 24.6162 -8.04609
17 1 10.5388 24.0857 -8.13961
18 1 10.3353 23.2578 -7.52153
19 1 11.0443 22.6964 -7.81438
20 1 11.5366 22.2763 -8.51889
21 1 11.8161 22.0552 -9.41694
22 1 12.7034 21.6704 -9.31379
23 1 13.5845 21.401 -9.0662
24 1 14.2699 20.8126 -8.99223
25 1 13.7631 20.0492 -8.93503
26 1 13.7319 20.347 -8.00383
27 1 13.6731 20.1006 -7.10151
28 1 14.0693 19.2078 -7.26317
29 1 14.5342 18.7804 -7.99066
30 1 15.2178 18.1267 -7.98032
31 1 16.098 17.7032 -7.8884
32 1 16.2059 16.8048 -7.95491
33 1 16.7771 16.152 -7.65931
34 1 16.4851 15.3139 -7.87048
35 1 16.3277 14.7266 -7.13972
36 1 15.5024 14.2787 -7.16546
37 1 15.3248 13.2684 -7.26321
38 1 14.4426 13.6203 -7.23316
39 1 14.1669 14.0665 -8.05787
40 1 13.6346 14.0471 -8.84622
41 1 13.7791 14.1501 -9.76076
42 1 14.066 15.0503 -9.61152
43 1 14.5264 15.8432 -9.36716
44 1 14.4005 16.5567 -8.80445
45 1 14.0943 16.8054 -7.97685
46 1 13.639 16.302 -7.34208
47 1 13.6062 15.3792 -7.12713
48 1 12.9304 15.4915 -6.42873
49 1 12.2666 14.8967 -6.72071
50 1 11.8109 14.2524 -7.15124
51 1 11.7267 13.5004 -6.64859
52 1 10.9004 13.2031 -6.87698
53 1 10.2686 12.6863 -7.22554
54 1 10.0871 13.5344 -7.65498
55 1 10.2739 14.4182 -7.883
56 1 10.616 14.5561 -7.02227
57 1 10.0744 14.3421 -6.22826
58 1 10.1727 14.7105 -5.38757
59 1 10.7561 15.4445 -5.41974
60 1 11.3346 15.9635 -4.79138
61 1 12.1926 15.6979 -4.57394
62 1 11.7625 14.8734 -4.58431
63 1 11.1152 15.113 -3.93119
64 1 11.8794 15.3189 -3.38414
ITEM: TIMESTEP
560000
ITEM: NUMBER OF ATOMS
64
ITEM: BOX BOUNDS mm mm mm
-3.2000000000000000e+01 3.2000000000000000e+01
-3.2000000000000000e+01 3.2000000000000000e+01
-3.2000000000000000e+01 3.2000000000000000e+01
ITEM: ATOMS id type x y z
1 1 9.828 23.7018 -8.69322
2 1 9.77007 24.6458 -8.85907
3 1 9.78391 24.973 -9.75903
4 1 10.5245 25.138 -10.3539
5 1 11.2177 25.4839 -9.80434
6 1 12.0771 25.1545 -10.0716
7 1 12.1446 24.2345 -9.90119
8 1 11.9818 23.3491 -9.67024
9 1 11.1735 23.637 -9.21096
10 1 11.3893 24.2367 -8.48074
11 1 11.4883 23.4018 -8.08991
12 1 11.6845 22.4921 -7.92493
13 1 11.9433 21.6811 -8.29594
14 1 12.83 21.4759 -8.37926
15 1 13.2593 20.6586 -8.50074
16 1 14.1441 20.4693 -8.28126
17 1 14.5946 21.0014 -8.85343
18 1 14.9714 21.7974 -9.06712
19 1 15.662 21.9738 -9.77514
20 1 16.1274 21.8309 -8.94697
21 1 15.7098 21.6312 -8.12977
22 1 15.2864 21.2366 -7.41425
23 1 14.9455 22.0065 -6.99657
24 1 15.4041 22.4977 -6.28943
25 1 14.7801 23.1357 -6.71134
26 1 14.9804 23.9763 -7.13978
27 1 15.5862 23.4571 -7.63419
28 1 16.1528 22.9894 -7.03584
29 1 16.568 22.4048 -6.4908
30 1 16.9228 21.6977 -6.0221
31 1 16.8967 20.8113 -5.96476
32 1 16.7971 19.8778 -6.13955
33 1 16.1655 20.1852 -6.75548
34 1 15.2331 20.2758 -6.89906
35 1 14.4565 19.896 -6.54257
36 1 13.8188 19.2967 -6.85324
37 1 13.456 18.4118 -6.70814
38 1 13.9939 17.7412 -7.00896
39 1 13.5643 17.5408 -7.86998
40 1 12.872 18.1032 -7.63581
41 1 12.5449 17.7784 -6.83742
42 1 12.2989 17.5543 -5.97628
43 1 11.5329 17.0282 -6.35812
44 1 10.8213 16.4254 -6.36209
45 1 10.2827 16.3305 -7.14862
46 1 9.57751 16.6863 -7.72566
47 1 9.24432 17.562 -7.88825
48 1 8.94966 18.4013 -7.5074
49 1 8.14083 18.527 -7.92452
50 1 7.47927 18.2888 -8.54498
51 1 7.29934 17.4328 -8.78609
52 1 7.3159 16.9704 -9.63918
53 1 7.39848 16.2688 -10.1898
54 1 6.98853 16.005 -11.0435
55 1 6.35794 15.802 -10.3153
56 1 6.07065 15.5632 -9.45137
57 1 5.98315 15.4463 -8.5415
58 1 6.36312 15.3069 -7.71212
59 1 6.91927 15.0038 -6.98161
60 1 7.49961 14.6271 -6.36745
61 1 8.24611 14.0658 -6.26151
62 1 8.58204 14.3969 -7.11213
63 1 9.37221 14.2861 -6.69308
64 1 10.2279 14.5549 -6.37329
ITEM: TIMESTEP
570000
ITEM: NUMBER OF ATOMS
64
ITEM: BOX BOUNDS mm mm mm
-3.2000000000000000e+01 3.2000000000000000e+01
-3.2000000000000000e+01 3.2000000000000000e+01
-3.2000000000000000e+01 3.2000000000000000e+01
ITEM: ATOMS id type x y z
1 1 9.89019 29.6337 -8.95655
2 1 9.61367 28.7682 -9.03174
3 1 10.5244 28.812 -9.28318
4 1 11.4271 28.6563 -9.36891
5 1 12.0775 28.0678 -9.1728
6 1 11.7468 27.3753 -9.69199
7 1 12.2879 27.7738 -10.369
8 1 13.0308 28.3309 -10.3879
9 1 13.204 27.9638 -11.2479
10 1 13.9355 27.5528 -10.8664
11 1 14.8363 27.3433 -10.5662
12 1 14.7463 26.9799 -9.63036
13 1 14.5995 26.252 -9.05855
14 1 15.0546 26.3736 -8.24418
15 1 15.8255 25.8972 -8.13361
16 1 16.5743 26.0134 -7.65306
17 1 17.0373 26.3995 -6.95844
18 1 17.0947 26.4402 -6.03321
19 1 17.6982 26.6748 -5.36815
20 1 18.4605 26.8182 -4.85222
21 1 18.8727 26.0395 -5.09983
22 1 19.0691 25.1179 -5.14848
23 1 18.8342 24.5007 -5.73204
24 1 19.2119 24.3773 -6.53982
25 1 18.4943 23.8294 -6.76626
26 1 17.9104 23.4111 -7.40235
27 1 17.3462 22.9322 -6.82045
28 1 17.9042 22.2971 -6.40235
29 1 17.8297 21.3265 -6.36024
30 1 16.9501 21.1398 -6.65797
31 1 16.6655 22.0292 -6.65105
32 1 15.8935 22.3647 -7.00139
33 1 15.3738 21.7395 -7.51911
34 1 15.0414 20.9287 -7.63498
35 1 14.1191 21.0643 -7.51304
36 1 13.3188 20.5447 -7.37866
37 1 12.3781 20.5821 -7.35058
38 1 12.1628 21.0367 -6.54419
39 1 11.9188 21.1382 -5.62848
40 1 11.728 20.2394 -5.62481
41 1 12.6177 19.8879 -5.4633
42 1 12.5842 19.4952 -4.59758
43 1 13.161 18.9464 -4.11721
44 1 13.7075 18.3749 -3.69579
45 1 13.7174 18.6417 -2.74598
46 1 12.8557 18.5823 -3.08969
47 1 12.2583 19.2605 -2.86418
48 1 11.8245 19.9855 -2.48431
49 1 10.975 19.6832 -2.01942
50 1 10.1065 19.2223 -2.09984
51 1 9.83423 19.3723 -2.93767
52 1 10.2657 20.0786 -3.4525
53 1 9.77615 20.8935 -3.39564
54 1 9.29712 21.0883 -4.16582
55 1 9.57848 21.6913 -4.79898
56 1 10.0056 22.3158 -4.24051
57 1 9.6565 22.7195 -5.00132
58 1 9.1453 23.4707 -5.27381
59 1 8.57965 24.0011 -5.86431
60 1 7.81414 24.2748 -5.34541
61 1 7.77513 24.03 -4.41272
62 1 8.13739 23.9059 -3.55571
63 1 7.7463 23.7354 -2.73896
64 1 6.93443 23.4211 -2.25845
ITEM: TIMESTEP
580000
ITEM: NUMBER OF ATOMS
64
ITEM: BOX BOUNDS mm mm mm
-3.2000000000000000e+01 3.2000000000000000e+01
-3.2000000000000000e+01 3.2000000000000000e+01
-3.2000000000000000e+01 3.2000000000000000e+01
ITEM: ATOMS id type x y z
1 1 9.02946 25.9586 -12.3662
2 1 8.68476 25.2092 -11.9156
3 1 8.31524 25.6287 -11.1861
4 1 8.12587 26.3716 -10.644
5 1 8.85644 26.9083 -10.3619
6 1 9.13921 27.6262 -9.87564
7 1 8.637 27.4614 -9.0632
8 1 8.33789 27.464 -8.1601
9 1 8.42972 28.3332 -7.69767
10 1 8.93234 29.1155 -7.85927
11 1 9.67589 29.7354 -7.81318
12 1 10.0692 29.8663 -6.94813
13 1 10.8731 29.8566 -7.45174
14 1 10.5422 29.6193 -8.32514
15 1 10.2913 30.0897 -9.11402
16 1 10.3216 30.6059 -9.94755
17 1 10.1343 29.786 -10.3193
18 1 10.1384 28.8526 -10.5117
19 1 10.1245 28.3745 -11.3054
20 1 10.2996 27.5098 -11.5472
21 1 10.7577 26.8554 -11.0105
22 1 11.0952 25.971 -10.8448
23 1 10.8613 26.3345 -9.978
24 1 10.0101 26.0347 -10.2569
25 1 9.18957 25.9593 -9.78657
26 1 8.94602 25.068 -9.75172
27 1 8.99181 24.1911 -9.52452
28 1 9.10724 23.2135 -9.62295
29 1 8.11365 23.2939 -9.58891
30 1 7.59322 22.7892 -8.89503
31 1 6.709 22.5381 -8.5503
32 1 7.25288 21.7278 -8.54989
33 1 7.60419 21.5062 -7.73464
34 1 8.34898 21.5107 -7.182
35 1 9.14868 20.9968 -7.03115
36 1 8.54957 20.6781 -6.38144
37 1 7.79471 20.3115 -5.90424
38 1 8.12337 19.4172 -5.83287
39 1 8.99433 19.6167 -6.16525
40 1 9.90096 19.5255 -6.04891
41 1 9.99078 20.4387 -5.70016
42 1 9.28562 20.973 -5.22199
43 1 9.08951 21.4235 -4.41562
44 1 9.77165 22.0018 -4.00602
45 1 9.69367 22.9771 -4.0469
46 1 9.09533 22.8799 -3.33033
47 1 8.97043 22.8093 -2.3928
48 1 8.12427 22.7288 -1.99769
49 1 7.6399 23.1591 -1.34266
50 1 7.43487 24.0263 -1.7059
51 1 7.12007 24.8823 -1.79827
52 1 6.63455 24.7232 -0.934439
53 1 7.33739 24.4549 -0.450229
54 1 8.11655 24.4297 -0.952837
55 1 8.15448 25.0561 -1.71865
56 1 7.69519 25.6853 -2.23971
57 1 7.05779 25.8074 -2.90597
58 1 6.28943 25.4777 -3.39129
59 1 5.35619 25.5211 -3.45243
60 1 4.91458 25.115 -4.12344
61 1 4.52816 24.4421 -4.67967
62 1 4.45294 23.827 -4.03098
63 1 4.52969 23.8886 -3.10876
64 1 3.66815 24.2354 -3.36253
ITEM: TIMESTEP
590000
ITEM: NUMBER OF ATOMS
64
ITEM: BOX BOUNDS mm mm mm
-3.2000000000000000e+01 3.2000000000000000e+01
-3.2000000000000000e+01 3.3221417072988785e+01
-3.2000000000000000e+01 3.2000000000000000e+01
ITEM: ATOMS id type x y z
1 1 2.52701 30.899 -6.32894
2 1 2.09917 31.4213 -6.94746
3 1 1.72623 31.5412 -6.04512
4 1 2.6205 31.8506 -5.76596
5 1 3.29297 32.505 -5.94007
6 1 3.95977 32.0681 -5.47727
7 1 4.84487 32.0467 -5.10453
8 1 5.51655 31.6129 -4.60864
9 1 6.30811 31.3077 -4.86811
10 1 6.49825 32.0913 -5.30303
11 1 5.81677 32.5892 -5.76856
12 1 5.17202 32.5234 -6.38104
13 1 5.74775 33.0527 -6.94712
14 1 6.36961 32.3283 -6.97437
15 1 7.21434 32.5088 -6.48209
16 1 7.90139 32.0554 -5.96267
17 1 7.8442 31.4186 -5.29356
18 1 7.73259 30.7798 -4.57849
19 1 7.2886 30.0569 -4.87577
20 1 6.44647 29.8358 -5.33371
21 1 6.1949 29.5803 -6.1949
22 1 5.43298 29.0225 -6.22073
23 1 4.97564 28.1993 -6.35394
24 1 5.00021 27.5038 -5.71014
25 1 5.6118 26.84 -5.34959
26 1 6.04685 25.9111 -5.40626
27 1 6.24483 24.9804 -5.50366
28 1 6.76357 24.263 -5.76969
29 1 7.37612 23.5973 -6.04742
30 1 8.00893 23.6689 -5.39581
31 1 8.14481 22.7395 -5.29095
32 1 7.68848 22.2186 -5.96078
33 1 7.85895 21.7105 -6.74146
34 1 7.98824 22.3328 -7.45664
35 1 7.67989 22.7175 -8.23356
36 1 8.16306 23.2413 -8.82751
37 1 8.83381 22.8983 -9.41189
38 1 9.24789 22.0728 -9.19788
39 1 9.40295 21.5094 -8.47222
40 1 9.80824 21.8822 -7.72805
41 1 10.3838 21.5262 -7.08537
42 1 10.9499 20.9011 -6.66885
43 1 10.9573 20.1068 -6.23104
44 1 10.9313 19.9626 -5.26619
45 1 10.1257 20.1076 -4.83871
46 1 10.0379 20.5438 -3.94848
47 1 9.75377 20.6391 -3.02681
48 1 9.55696 19.7194 -2.83764
49 1 8.723 19.601 -3.30227
50 1 8.08662 19.3641 -3.91731
51 1 7.22553 19.6954 -4.24096
52 1 7.15516 19.8084 -5.18203
53 1 6.8932 20.7061 -5.29258
54 1 6.86968 21.1538 -6.18021
55 1 6.27851 21.1035 -6.89026
56 1 5.66636 21.487 -6.27267
57 1 5.60735 20.5867 -6.0646
58 1 5.24607 21.0872 -5.33186
59 1 5.56314 21.5449 -4.58874
60 1 6.11638 21.8619 -3.91508
61 1 6.36062 21.8148 -2.96664
62 1 6.22898 21.6482 -2.11668
63 1 5.72161 20.8751 -2.22586
64 1 6.0417 20.0154 -1.86812
ITEM: TIMESTEP
600000
ITEM: NUMBER OF ATOMS
64
ITEM: BOX BOUNDS mm mm mm
-3.2000000000000000e+01 3.2000000000000000e+01
-3.2000000000000000e+01 3.2000000000000000e+01
-3.2000000000000000e+01 3.2000000000000000e+01
ITEM: ATOMS id type x y z
1 1 1.55314 24.6808 -4.87952
2 1 2.11538 23.9729 -4.56238
3 1 2.33099 23.0845 -4.28099
4 1 2.44893 23.2511 -3.35011
5 1 2.54516 23.7238 -2.58284
6 1 2.83967 23.5602 -1.70529
7 1 2.18855 24.1774 -1.36334
8 1 2.70434 24.9087 -1.21201
9 1 2.666 25.8175 -1.27906
10 1 3.48265 25.9034 -1.62814
11 1 4.19396 26.5143 -1.33792
12 1 4.37461 27.0797 -2.1198
13 1 4.03369 27.6536 -2.76754
14 1 4.78116 28.2585 -2.77639
15 1 4.93947 28.5065 -3.63565
16 1 5.05752 28.2896 -4.55556
17 1 5.16663 28.8848 -5.25554
18 1 5.7795 28.4043 -5.80778
19 1 6.61351 28.355 -6.19445
20 1 6.82128 29.0746 -5.58686
21 1 6.47054 29.8339 -5.95921
22 1 6.27674 29.782 -6.84352
23 1 5.5906 30.363 -7.09798
24 1 5.65697 30.1874 -8.0014
25 1 5.92496 30.0863 -8.8838
26 1 5.41658 29.3233 -8.80375
27 1 5.54586 28.5511 -8.19681
28 1 6.47185 28.3845 -8.02003
29 1 6.88806 28.6341 -8.87781
30 1 7.35137 29.3089 -8.47206
31 1 8.2691 29.4379 -8.7054
32 1 8.75463 28.6173 -8.73186
33 1 8.29628 27.9312 -8.30439
34 1 7.83352 27.2153 -7.9715
35 1 7.37293 26.7111 -7.35566
36 1 6.77917 26.0003 -7.52422
37 1 6.7614 25.1902 -8.03054
38 1 6.83168 24.6524 -7.2453
39 1 7.03468 23.7762 -6.95866
40 1 6.62712 23.028 -6.65471
41 1 6.91991 22.731 -5.78598
42 1 6.73261 22.5012 -4.87933
43 1 7.50552 21.8154 -4.92293
44 1 8.04071 21.5054 -5.59205
45 1 8.62824 20.7312 -5.30311
46 1 9.02506 21.0258 -6.0542
47 1 8.82941 20.7088 -6.92516
48 1 9.61265 20.1364 -7.12036
49 1 9.86002 19.2488 -7.07447
50 1 10.1065 18.8231 -6.21371
51 1 9.37984 18.42 -5.79581
52 1 9.41615 18.0219 -6.69061
53 1 9.22855 17.4859 -7.46755
54 1 9.102 17.3408 -8.43198
55 1 9.03615 17.1023 -9.32591
56 1 9.46427 16.8031 -10.159
57 1 9.20436 15.9706 -9.85774
58 1 9.18917 15.1056 -9.59834
59 1 8.87578 15.4293 -8.79473
60 1 8.32254 14.7729 -8.40637
61 1 7.5874 14.1667 -8.57203
62 1 7.30753 14.3547 -7.72663
63 1 7.79806 14.4725 -6.89278
64 1 8.49271 14.9721 -6.56127
ITEM: TIMESTEP
610000
ITEM: NUMBER OF ATOMS
64
ITEM: BOX BOUNDS mm mm mm
-3.2000000000000000e+01 3.2000000000000000e+01
-3.2000000000000000e+01 3.2000000000000000e+01
-3.2000000000000000e+01 3.2000000000000000e+01
ITEM: ATOMS id type x y z
1 1 -1.62732 26.4384 -11.5374
2 1 -1.44952 25.6114 -11.9184
3 1 -2.16906 25.2297 -11.6067
4 1 -2.05133 24.7957 -10.7715
5 1 -1.73859 23.9749 -10.7263
6 1 -1.0023 24.2553 -11.1897
7 1 -0.341603 24.6435 -10.6692
8 1 0.0900011 24.7061 -11.4995
9 1 -0.239303 25.5609 -11.2707
10 1 -0.545241 25.9135 -10.4839
11 1 -0.565341 25.4352 -9.68726
12 1 -0.721435 25.5325 -8.82898
13 1 -0.864586 26.3534 -8.446
14 1 -0.604592 27.2313 -8.60413
15 1 -0.689815 27.7122 -9.41303
16 1 -0.124346 28.5008 -9.64566
17 1 0.524951 27.9506 -9.4352
18 1 0.935723 27.7865 -8.64295
19 1 1.72704 28.1988 -8.37638
20 1 2.36809 28.1609 -7.69304
21 1 3.30485 28.4252 -7.57485
22 1 3.94237 27.8808 -7.2392
23 1 4.27314 27.1629 -6.71934
24 1 4.90677 26.4849 -6.68461
25 1 5.35313 26.1878 -7.41869
26 1 5.43459 26.4095 -8.33236
27 1 5.76114 26.3025 -9.21123
28 1 6.55577 25.7983 -9.24116
29 1 7.46901 25.9665 -9.16451
30 1 7.65438 25.4565 -8.36568
31 1 8.30674 25.2692 -7.75406
32 1 8.64571 25.737 -7.03176
33 1 8.81458 25.2411 -6.19493
34 1 8.48098 25.0074 -5.36386
35 1 8.56165 24.6575 -4.49326
36 1 8.39502 24.0509 -3.78724
37 1 7.41871 24.0515 -3.91014
38 1 6.82909 24.8129 -3.9496
39 1 6.16106 25.1601 -4.54014
40 1 6.95701 25.5073 -4.98603
41 1 7.40958 25.8339 -5.75833
42 1 7.18077 25.5566 -6.6451
43 1 7.16807 24.7418 -7.17216
44 1 7.50279 23.8121 -6.96809
45 1 7.91375 22.9849 -7.11911
46 1 7.74069 22.1759 -7.53349
47 1 7.83662 22.4026 -8.49303
48 1 7.82973 21.6891 -9.03179
49 1 7.31459 22.2131 -9.61557
50 1 6.87358 21.3634 -9.7757
51 1 6.27124 20.9138 -10.3489
52 1 6.80196 20.2242 -10.1292
53 1 7.0231 19.2834 -10.1236
54 1 6.24945 18.779 -10.2386
55 1 6.13075 18.2316 -10.9811
56 1 5.96173 17.5729 -10.3582
57 1 5.9912 16.9251 -9.60987
58 1 6.17044 16.4748 -8.77696
59 1 5.58471 16.0215 -8.21333
60 1 5.29069 16.9288 -7.92371
61 1 5.97615 17.1947 -7.3162
62 1 6.71213 17.6924 -7.45693
63 1 7.51778 17.2761 -7.83575
64 1 7.70508 17.7992 -8.59288
ITEM: TIMESTEP
620000
ITEM: NUMBER OF ATOMS
64
ITEM: BOX BOUNDS mm mm mm
-3.2000000000000000e+01 3.2000000000000000e+01
-3.2000000000000000e+01 3.2035719607793681e+01
-3.2000000000000000e+01 3.2000000000000000e+01
ITEM: ATOMS id type x y z
1 1 -2.49888 32.0293 -3.12405
2 1 -1.67151 31.5863 -3.21622
3 1 -1.383 31.3459 -4.05317
4 1 -1.67294 31.2346 -4.92444
5 1 -1.26051 31.3118 -5.7306
6 1 -1.66051 30.9392 -6.46941
7 1 -0.950245 30.4705 -6.78069
8 1 -0.686001 29.8716 -7.38961
9 1 -0.547217 29.7511 -8.32961
10 1 -1.10415 30.2997 -8.84202
11 1 -0.938759 30.2183 -9.73148
12 1 -0.546394 29.3591 -9.67821
13 1 -0.368428 28.6586 -10.3247
14 1 0.0926161 27.8436 -10.5333
15 1 0.928667 27.6056 -10.1264
16 1 1.8176 27.4478 -9.76767
17 1 2.42953 28.1218 -10.0793
18 1 2.28343 28.3191 -10.9808
19 1 3.22736 28.1469 -10.8728
20 1 3.76593 27.5938 -11.3829
21 1 3.84012 28.4534 -11.7992
22 1 3.99648 28.887 -12.6274
23 1 4.63353 29.1679 -13.2617
24 1 5.48079 28.8682 -13.0534
25 1 6.25405 28.4467 -13.4218
26 1 7.16275 28.3924 -13.5884
27 1 7.48796 27.6085 -13.1449
28 1 7.02924 26.9769 -13.6019
29 1 7.68128 26.3316 -13.8114
30 1 8.39749 26.6075 -14.321
31 1 9.1428 26.2272 -13.8881
32 1 9.76574 25.9605 -13.237
33 1 10.6614 26.1208 -12.865
34 1 10.2809 26.9703 -12.6114
35 1 9.61845 27.6892 -12.5333
36 1 9.40393 27.4952 -11.6094
37 1 9.42218 26.8598 -10.9149
38 1 10.0485 26.5487 -10.253
39 1 10.8644 26.2706 -9.90913
40 1 11.4296 25.6707 -9.46882
41 1 11.7221 25.42 -8.62439
42 1 11.7541 24.6022 -8.179
43 1 11.9447 23.8066 -7.79103
44 1 11.9224 23.5279 -8.70647
45 1 12.7366 23.0477 -8.51352
46 1 13.1692 22.9343 -9.33013
47 1 13.3993 23.3813 -10.1485
48 1 13.2633 22.7399 -10.8632
49 1 12.3827 22.3658 -11.053
50 1 12.9181 21.8254 -11.5222
51 1 12.6139 20.9554 -11.4379
52 1 12.563 21.0513 -12.3819
53 1 11.7392 20.7707 -11.997
54 1 11.3969 20.6028 -11.1506
55 1 11.2279 19.679 -11.3502
56 1 10.3256 20.0306 -11.4705
57 1 9.91971 19.1758 -11.5908
58 1 9.4923 18.6231 -10.9929
59 1 9.68776 18.9835 -10.1779
60 1 9.12145 19.277 -9.43266
61 1 9.27605 18.737 -8.68287
62 1 8.95904 18.0204 -8.16853
63 1 9.91069 18.0818 -8.14933
64 1 10.2218 17.9581 -9.01758
ITEM: TIMESTEP
630000
ITEM: NUMBER OF ATOMS
64
ITEM: BOX BOUNDS mm mm mm
-3.2000000000000000e+01 3.2000000000000000e+01
-3.2000000000000000e+01 3.2000000000000000e+01
-3.2000000000000000e+01 3.2000000000000000e+01
ITEM: ATOMS id type x y z
1 1 -2.09872 26.5693 -3.67161
2 1 -2.77971 26.9621 -4.28099
3 1 -2.24988 27.0655 -5.08339
4 1 -1.97446 26.4451 -5.73964
5 1 -1.73504 25.8925 -6.4814
6 1 -0.926591 26.3563 -6.58607
7 1 -0.570426 27.1966 -6.60462
8 1 0.0157216 27.0757 -5.88141
9 1 0.547066 27.6116 -5.20538
10 1 1.32545 27.6004 -4.70483
11 1 1.65317 26.74 -5.0197
12 1 0.912512 26.1864 -5.20095
13 1 1.13989 25.465 -5.827
14 1 2.05337 25.6864 -5.77934
15 1 2.8667 25.923 -5.43921
16 1 2.77321 25.0353 -5.11551
17 1 2.75801 24.2403 -5.6506
18 1 2.68557 24.9179 -6.3447
19 1 2.43779 25.1777 -7.15903
20 1 3.0276 25.1764 -7.86265
21 1 3.37693 26.0795 -8.11071
22 1 3.48112 26.5648 -7.30956
23 1 4.20273 26.5985 -6.64789
24 1 4.91475 27.0557 -6.17926
25 1 5.73574 27.5076 -6.27697
26 1 6.24313 28.0267 -5.7116
27 1 6.21109 27.3035 -5.14498
28 1 6.57387 27.1219 -4.32103
29 1 7.35904 26.7382 -3.99941
30 1 8.22425 26.3579 -4.24676
31 1 8.86575 26.8035 -4.82382
32 1 8.80683 26.2925 -5.60312
33 1 9.32526 25.9411 -6.26418
34 1 10.0947 25.6154 -6.60282
35 1 10.1206 25.4715 -7.53908
36 1 10.3812 24.5652 -7.64626
37 1 9.95651 23.7717 -7.84468
38 1 9.17527 23.7892 -8.42631
39 1 8.64979 23.9921 -9.20025
40 1 9.23553 24.7328 -9.21208
41 1 8.87596 25.5706 -9.52716
42 1 8.43115 25.3555 -10.3355
43 1 8.23375 25.9462 -11.1107
44 1 8.63124 25.1317 -11.3614
45 1 9.21035 24.8184 -12.0383
46 1 9.44514 23.912 -12.2486
47 1 9.97158 23.3071 -12.6089
48 1 9.68984 22.471 -12.3453
49 1 9.95248 21.6606 -12.7178
50 1 10.5456 21.4825 -12.1022
51 1 11.2586 20.8769 -11.9942
52 1 11.6715 20.1431 -11.5958
53 1 11.871 19.7291 -10.7618
54 1 12.6305 20.0633 -10.3693
55 1 13.3733 20.2034 -9.83021
56 1 13.3621 19.2551 -9.81636
57 1 13.7405 19.1636 -8.9224
58 1 14.0289 19.2999 -8.04152
59 1 14.2818 20.2029 -8.19924
60 1 14.8734 20.9584 -7.90134
61 1 15.1581 21.7769 -8.24946
62 1 14.6817 22.5771 -8.2372
63 1 14.6573 23.5026 -8.2506
64 1 14.7028 24.0148 -9.04451
ITEM: TIMESTEP
640000
ITEM: NUMBER OF ATOMS
64
ITEM: BOX BOUNDS mm mm mm
-3.2000000000000000e+01 3.2000000000000000e+01
-3.2000000000000000e+01 3.2000000000000000e+01
-3.2000000000000000e+01 3.2000000000000000e+01
ITEM: ATOMS id type x y z
1 1 1.75511 26.8554 -6.41831
2 1 2.02565 26.9827 -5.56047
3 1 2.59374 26.7798 -4.90197
4 1 2.34182 27.398 -4.25514
5 1 2.11823 28.3366 -4.00826
6 1 2.41948 28.5571 -3.19269
7 1 3.01993 28.0619 -2.61367
8 1 3.72806 27.633 -2.04242
9 1 4.45392 27.3395 -2.48871
10 1 5.12707 26.7475 -2.5644
11 1 5.7214 26.2991 -2.02424
12 1 5.43655 25.4885 -2.29256
13 1 5.74536 24.6158 -2.21544
14 1 5.66155 23.7635 -1.65672
15 1 5.78679 22.9976 -2.16919
16 1 5.68798 23.4591 -2.95233
17 1 5.22082 23.3216 -3.75971
18 1 6.10471 22.9147 -3.96201
19 1 7.0396 23.0429 -4.1074
20 1 7.68412 22.4334 -4.38742
21 1 7.68676 21.5045 -4.28092
22 1 7.95489 21.0835 -5.11535
23 1 8.34285 21.9029 -5.3993
24 1 8.24853 22.0861 -6.36334
25 1 7.47416 22.5849 -6.68394
26 1 7.20042 21.6841 -6.78213
27 1 7.57245 21.0001 -7.46968
28 1 8.18686 20.3218 -7.47968
29 1 8.64733 21.0282 -7.80706
30 1 9.12242 20.7673 -7.03575
31 1 8.75681 20.0602 -6.44828
32 1 7.85344 20.0278 -6.20566
33 1 8.35664 19.379 -5.71037
34 1 9.10632 19.0468 -5.27754
35 1 9.82857 18.5884 -5.67998
36 1 10.2426 17.7799 -5.62732
37 1 10.8534 17.0284 -5.71315
38 1 10.263 17.035 -6.48351
39 1 10.8337 17.783 -6.60485
40 1 11.5039 18.3663 -6.35013
41 1 12.0258 18.8877 -5.73917
42 1 12.683 19.084 -5.09131
43 1 13.1921 18.799 -4.317
44 1 13.8617 19.1156 -3.66827
45 1 14.2091 19.1953 -2.78479
46 1 13.9797 18.3215 -2.54425
47 1 13.5785 17.4668 -2.39801
48 1 13.6422 16.8781 -3.13466
49 1 14.2649 16.4647 -3.81163
50 1 14.9934 15.8145 -3.86731
51 1 14.2756 15.314 -3.50254
52 1 13.451 15.7325 -3.91182
53 1 13.5589 14.8674 -4.32574
54 1 13.3828 14.097 -4.93388
55 1 13.0249 13.8291 -4.13161
56 1 12.9098 12.8571 -4.15813
57 1 13.7586 12.508 -4.18896
58 1 14.6589 12.7183 -3.92822
59 1 14.8618 12.1537 -3.22368
60 1 15.7348 11.8476 -2.94783
61 1 16.0739 11.0142 -2.84742
62 1 16.555 10.9354 -2.03143
63 1 16.882 11.8612 -1.80208
64 1 16.8348 12.4447 -2.50376
ITEM: TIMESTEP
650000
ITEM: NUMBER OF ATOMS
64
ITEM: BOX BOUNDS mm mm mm
-3.2000000000000000e+01 3.2000000000000000e+01
-3.2000000000000000e+01 3.2000000000000000e+01
-3.2000000000000000e+01 3.2000000000000000e+01
ITEM: ATOMS id type x y z
1 1 0.929361 27.3891 0.96956
2 1 0.790347 26.4817 1.24934
3 1 1.49779 25.8963 1.13478
4 1 2.0557 25.1973 1.32068
5 1 2.64651 24.5409 1.6503
6 1 3.20931 25.1206 1.06983
7 1 3.47614 25.2936 0.203255
8 1 3.61655 25.3891 -0.740894
9 1 4.26249 25.2885 -1.54294
10 1 5.121 25.3605 -1.9507
11 1 5.55167 24.7748 -2.49311
12 1 5.72715 23.7994 -2.53019
13 1 5.34409 22.9347 -2.65596
14 1 4.88621 22.0865 -2.53641
15 1 5.46092 21.7107 -1.92782
16 1 6.29648 21.2867 -1.70292
17 1 7.23296 21.3154 -1.54413
18 1 8.14915 21.0607 -1.25557
19 1 7.94898 20.5757 -2.03106
20 1 7.39503 19.9485 -2.34223
21 1 7.92414 19.5264 -1.77858
22 1 8.36729 18.7601 -1.58206
23 1 9.08713 18.0957 -1.38638
24 1 9.14554 18.3806 -2.25633
25 1 9.17585 19.1263 -2.84007
26 1 9.55269 19.1922 -3.74409
27 1 9.80973 18.4971 -4.26881
28 1 9.41453 18.8534 -5.02433
29 1 9.42435 18.1295 -5.62883
30 1 9.31174 17.2685 -5.97726
31 1 8.52438 17.3612 -6.41802
32 1 8.80127 17.2072 -7.35078
33 1 8.64939 18.156 -7.22959
34 1 8.33053 18.0378 -8.11241
35 1 7.93396 17.3141 -8.67234
36 1 8.0014 16.448 -9.03186
37 1 8.81195 16.6441 -8.59522
38 1 9.67354 16.2489 -8.46598
39 1 10.4727 15.9991 -8.84837
40 1 11.0405 16.1816 -9.59021
41 1 11.7956 15.6405 -9.89999
42 1 12.4461 16.2935 -9.84698
43 1 11.9192 16.977 -10.1923
44 1 12.1804 17.7575 -9.66813
45 1 13.0409 17.907 -9.19897
46 1 13.6562 18.5576 -9.16891
47 1 13.979 17.9798 -8.58771
48 1 13.724 17.5006 -7.81325
49 1 13.4152 17.3113 -6.99811
50 1 13.442 17.2236 -6.03653
51 1 13.7421 16.7329 -5.32083
52 1 14.4172 16.1949 -4.99434
53 1 14.5199 16.744 -4.23582
54 1 14.53 16.6989 -3.25996
55 1 14.8655 15.7823 -3.31617
56 1 14.6296 14.8588 -3.41317
57 1 14.3392 13.9467 -3.65046
58 1 14.0994 13.7721 -2.75671
59 1 13.4461 13.3976 -2.17888
60 1 13.1281 12.6328 -1.75693
61 1 12.3462 12.5186 -2.1724
62 1 12.4372 11.6992 -2.63811
63 1 13.1735 11.1922 -2.90375
64 1 12.8233 10.9173 -2.01107
ITEM: TIMESTEP
660000
ITEM: NUMBER OF ATOMS
64
ITEM: BOX BOUNDS mm mm mm
-3.2000000000000000e+01 3.2000000000000000e+01
-3.2000000000000000e+01 3.2000000000000000e+01
-3.2000000000000000e+01 3.2000000000000000e+01
ITEM: ATOMS id type x y z
1 1 4.38948 23.5878 -9.58368
2 1 3.95225 22.9657 -9.12268
3 1 4.03193 22.2965 -8.48535
4 1 4.23786 21.7783 -9.24949
5 1 4.69847 21.3886 -9.98896
6 1 4.4562 20.9057 -10.7393
7 1 5.09276 20.2388 -10.8952
8 1 5.9355 20.5769 -11.2168
9 1 6.8291 20.6645 -11.0743
10 1 7.62622 20.3517 -10.6744
11 1 8.58165 20.4797 -10.7648
12 1 8.6008 19.6179 -11.1541
13 1 9.42537 19.3318 -10.8892
14 1 9.25162 19.259 -9.98062
15 1 9.46893 19.2953 -9.04776
16 1 8.74101 19.2183 -8.43465
17 1 8.58048 19.6445 -7.53448
18 1 8.89213 18.7982 -7.40926
19 1 8.09017 18.6481 -7.82357
20 1 7.68273 17.8287 -8.015
21 1 7.24065 17.563 -8.80566
22 1 7.2296 18.4437 -9.02574
23 1 6.44039 18.9021 -8.58685
24 1 5.56037 19.0293 -8.48956
25 1 5.79951 19.1064 -7.5291
26 1 6.54214 19.0484 -6.94068
27 1 6.56274 18.8276 -6.05881
28 1 7.44411 18.8407 -5.62783
29 1 7.73582 17.9777 -5.55802
30 1 8.53565 18.2518 -5.02576
31 1 9.20651 18.8889 -4.64939
32 1 9.45425 19.0747 -5.54869
33 1 9.98755 18.8912 -6.27765
34 1 10.9472 18.7639 -6.09815
35 1 11.8258 18.7043 -6.28764
36 1 12.3649 18.6979 -7.02594
37 1 12.7774 19.2868 -7.65565
38 1 11.9537 19.1706 -8.04023
39 1 11.3144 19.2365 -8.8172
40 1 11.263 19.0375 -9.78456
41 1 11.2056 18.1096 -9.78369
42 1 10.5566 17.3819 -9.86138
43 1 10.1856 18.0008 -10.4444
44 1 9.67185 18.3019 -9.66172
45 1 9.14635 17.7191 -9.15966
46 1 9.67178 17.0683 -8.80236
47 1 10.2242 16.3515 -8.47338
48 1 9.60287 15.6155 -8.54729
49 1 9.45632 14.9306 -9.14855
50 1 9.45763 14.7542 -10.1059
51 1 9.67641 14.9466 -10.9733
52 1 9.73833 15.7148 -11.615
53 1 9.95549 15.747 -12.5149
54 1 10.7185 15.362 -12.1747
55 1 11.6805 15.3212 -11.9991
56 1 12.3536 15.521 -11.3644
57 1 12.2951 15.9392 -10.5177
58 1 11.5487 15.3867 -10.6165
59 1 10.8822 14.916 -10.0834
60 1 10.5106 14.1326 -9.74402
61 1 10.7553 13.4278 -9.24801
62 1 11.0922 12.9139 -9.92502
63 1 10.8038 12.1339 -9.49201
64 1 10.7152 11.2139 -9.46497
ITEM: TIMESTEP
670000
ITEM: NUMBER OF ATOMS
64
ITEM: BOX BOUNDS mm mm mm
-3.2000000000000000e+01 3.2000000000000000e+01
-3.2000000000000000e+01 3.2000000000000000e+01
-3.2000000000000000e+01 3.2000000000000000e+01
ITEM: ATOMS id type x y z
1 1 5.26841 25.0349 -14.6657
2 1 5.22836 24.2227 -15.1771
3 1 5.27839 23.9876 -14.2335
4 1 5.51726 24.0516 -13.3021
5 1 5.11294 23.2142 -13.1978
6 1 5.3448 22.8636 -12.3867
7 1 5.03226 22.4034 -11.6191
8 1 4.93323 21.4943 -11.4587
9 1 5.62473 20.9192 -11.1587
10 1 5.94908 20.0069 -11.2559
11 1 5.26202 19.5599 -11.7061
12 1 4.3536 19.6451 -11.7212
13 1 3.98551 20.5415 -11.8612
14 1 3.69561 21.203 -11.2261
15 1 4.06254 20.8435 -10.3493
16 1 3.80665 21.6883 -10.0086
17 1 3.30533 22.3617 -9.58932
18 1 2.80817 21.5889 -9.37283
19 1 3.33954 21.3565 -8.64781
20 1 3.57899 20.7935 -7.89903
21 1 3.27744 19.9197 -7.66553
22 1 3.80359 19.0805 -7.54614
23 1 3.29305 18.5629 -6.92395
24 1 2.6459 17.9386 -6.73545
25 1 3.17327 17.2621 -7.08308
26 1 2.87225 16.7322 -6.37879
27 1 3.22194 16.9757 -5.52663
28 1 4.01883 16.9639 -5.04011
29 1 4.64989 16.5472 -4.41114
30 1 5.23431 15.9062 -4.176
31 1 5.80588 15.1172 -4.1053
32 1 6.67915 15.2386 -4.45737
33 1 7.30417 15.943 -4.45207
34 1 7.4137 16.6661 -5.06829
35 1 7.19846 16.8556 -5.93193
36 1 6.83679 16.8758 -6.82408
37 1 7.61529 16.3545 -6.96801
38 1 8.08805 17.1723 -7.19467
39 1 8.9547 17.0627 -7.52191
40 1 9.59948 16.7685 -8.14168
41 1 9.94919 16.6012 -8.99384
42 1 10.3141 16.6611 -9.87171
43 1 9.85328 15.9987 -10.2855
44 1 9.09206 15.6012 -10.6902
45 1 8.6428 15.0587 -10.1114
46 1 7.90715 15.1332 -9.56732
47 1 7.22077 15.517 -8.99252
48 1 6.62789 15.0346 -8.45435
49 1 7.0448 14.1994 -8.42238
50 1 7.99437 14.1855 -8.52125
51 1 8.49721 13.4226 -8.77232
52 1 8.12263 12.6568 -9.19324
53 1 8.65611 12.4985 -9.96134
54 1 9.32972 13.0529 -9.60717
55 1 9.48143 13.6707 -10.2847
56 1 10.2626 13.3441 -10.6376
57 1 10.6238 12.8069 -11.3669
58 1 11.0906 12.0818 -11.8058
59 1 11.47 11.2623 -11.7609
60 1 11.9627 11.4202 -12.5365
61 1 12.016 10.974 -13.3649
62 1 11.3052 10.5654 -12.8702
63 1 10.4386 10.9535 -12.7567
64 1 9.88546 10.5425 -13.3774
ITEM: TIMESTEP
680000
ITEM: NUMBER OF ATOMS
64
ITEM: BOX BOUNDS mm mm mm
-3.2000000000000000e+01 3.2000000000000000e+01
-3.2000000000000000e+01 3.2000000000000000e+01
-3.2000000000000000e+01 3.2000000000000000e+01
ITEM: ATOMS id type x y z
1 1 -1.21133 22.4275 -12.1075
2 1 -1.04511 21.8336 -11.3125
3 1 -0.441246 22.1294 -10.5782
4 1 0.34191 22.3496 -11.0489
5 1 0.779324 22.5678 -12.013
6 1 1.56348 22.102 -12.1865
7 1 2.14725 22.167 -12.8881
8 1 1.935 21.4274 -13.4237
9 1 2.19935 20.6882 -13.0137
10 1 2.72746 20.0125 -12.5512
11 1 3.35206 19.3707 -12.2136
12 1 3.90997 19.3679 -13.0282
13 1 4.714 18.9267 -12.8674
14 1 4.28813 18.3388 -12.16
15 1 4.64232 18.0725 -11.2896
16 1 3.99211 18.0109 -10.6489
17 1 3.41029 17.8558 -9.82335
18 1 3.27489 17.1831 -9.20872
19 1 3.24894 16.3006 -9.49008
20 1 3.47173 15.47 -9.90117
21 1 2.90586 15.1826 -9.22512
22 1 3.23734 14.3247 -9.37085
23 1 3.82385 13.7569 -9.74445
24 1 4.57357 14.0298 -10.2682
25 1 5.1457 14.6194 -9.81782
26 1 5.19237 15.4767 -9.35358
27 1 5.25886 16.4346 -9.48798
28 1 5.48763 17.351 -9.38423
29 1 5.42112 18.2223 -9.76971
30 1 6.23895 18.2834 -9.41993
31 1 6.03638 18.6074 -8.57331
32 1 6.38709 17.9995 -7.93218
33 1 6.46992 17.2144 -7.53095
34 1 6.59489 16.5823 -6.84496
35 1 6.86263 16.2668 -5.97855
36 1 6.66782 15.3771 -5.79133
37 1 7.56679 15.0823 -6.02028
38 1 8.32614 14.9366 -6.56901
39 1 8.12191 14.9094 -7.51336
40 1 8.60127 15.4372 -8.11611
41 1 9.37357 15.0698 -8.57623
42 1 9.99474 15.3656 -9.18046
43 1 10.5857 15.2905 -9.91578
44 1 10.5527 14.4148 -9.8235
45 1 10.715 13.9237 -9.00986
46 1 11.5279 13.5076 -8.9786
47 1 11.7758 14.3216 -9.22768
48 1 12.017 13.9012 -10.0262
49 1 12.5075 13.3619 -10.605
50 1 12.7613 13.1077 -9.68355
51 1 12.7443 12.3628 -10.216
52 1 13.2558 12.6225 -10.9273
53 1 13.5114 11.689 -11.1692
54 1 12.8341 11.0857 -10.7201
55 1 13.1746 11.2423 -9.81744
56 1 13.3616 10.9409 -8.96764
57 1 13.7801 10.1312 -8.68842
58 1 14.4334 9.77343 -8.08987
59 1 14.5682 9.29888 -7.22715
60 1 14.1451 8.56671 -6.88085
61 1 13.5677 7.81889 -6.88382
62 1 13.8599 7.67847 -7.79185
63 1 14.8009 7.47777 -7.63179
64 1 15.5189 7.44352 -7.07472
ITEM: TIMESTEP
690000
ITEM: NUMBER OF ATOMS
64
ITEM: BOX BOUNDS mm mm mm