ITEM: TIMESTEP
2720000
ITEM: NUMBER OF ATOMS
64
ITEM: BOX BOUNDS mm mm mm
-3.2000000000000000e+01 3.2000000000000000e+01
-3.2000000000000000e+01 4.8340443138658493e+01
-3.2000000000000000e+01 3.2000000000000000e+01
ITEM: ATOMS id type x y z
1 1 6.32516 44.1989 -4.79791
2 1 6.13204 44.8145 -4.08109
3 1 6.13467 45.0665 -3.20502
4 1 6.24262 44.8725 -2.34034
5 1 6.52458 44.4573 -1.52609
6 1 6.54667 43.9318 -0.705641
7 1 6.56678 44.1337 0.218596
8 1 5.63195 44.3194 0.316417
9 1 4.84005 43.8313 0.0993458
10 1 4.41234 43.2341 -0.439098
11 1 5.01622 42.5033 -0.47262
12 1 4.88109 41.7358 -0.989056
13 1 4.66245 40.88 -1.30499
14 1 4.96311 39.9998 -1.22371
15 1 5.54934 39.284 -1.30247
16 1 6.11888 38.9652 -2.02602
17 1 6.23723 38.5748 -2.85186
18 1 6.50043 37.9176 -3.50493
19 1 6.19879 37.3729 -4.18128
20 1 6.25247 36.6708 -4.76453
21 1 7.14648 36.343 -4.84654
22 1 8.02552 36.0449 -5.14264
23 1 8.41609 35.2414 -5.45927
24 1 9.1567 34.6103 -5.52361
25 1 9.31371 33.9088 -4.97058
26 1 9.74367 33.6524 -4.16927
27 1 9.98785 33.4286 -3.25878
28 1 10.7747 33.9879 -3.24807
29 1 11.3266 34.5014 -2.65024
30 1 12.1294 35.093 -2.81588
31 1 12.8024 35.4525 -2.2717
32 1 13.247 35.1148 -1.43579
33 1 13.1433 35.8071 -0.853781
34 1 12.8801 36.3295 -0.153287
35 1 12.5435 36.8786 0.554964
36 1 13.0095 37.602 0.901545
37 1 13.1768 38.2504 1.53051
38 1 12.9018 39.1454 1.66415
39 1 12.3282 39.9368 1.68846
40 1 11.8342 40.6308 1.28732
41 1 11.0728 41.2051 1.28888
42 1 10.9456 42.1194 1.45104
43 1 10.5497 42.9651 1.48345
44 1 10.0674 43.8719 1.63997
45 1 10.0071 44.8779 1.61551
46 1 10.0736 45.775 1.24269
47 1 9.31752 46.2966 1.04898
48 1 8.80935 46.7832 0.30741
49 1 8.36947 46.4586 -0.438103
50 1 8.27525 46.3207 -1.37466
51 1 7.59414 46.348 -1.99764
52 1 6.91794 46.9441 -2.13369
53 1 6.01986 46.8375 -2.29045
54 1 5.37425 46.6824 -1.67174
55 1 4.94425 46.2867 -0.928665
56 1 4.76394 45.854 -0.13467
57 1 4.8798 45.2237 0.573049
58 1 5.21794 45.0859 1.45383
59 1 6.01554 45.259 1.96262
60 1 6.13684 46.1454 2.05998
61 1 6.0812 47.0872 2.18449
62 1 6.00101 47.8774 1.67915
63 1 5.9116 48.3324 0.880981
64 1 6.20903 48.2278 0.0283851
ITEM: TIMESTEP
2730000
ITEM: NUMBER OF ATOMS
64
ITEM: BOX BOUNDS mm mm mm
-3.2000000000000000e+01 3.2000000000000000e+01
-3.2000000000000000e+01 4.8056840790004017e+01
-3.2000000000000000e+01 3.2000000000000000e+01
ITEM: ATOMS id type x y z
1 1 5.07627 48.0488 -6.16019
2 1 5.42896 47.6812 -5.35172
3 1 5.47458 46.8785 -4.92865
4 1 5.17906 46.0735 -4.60117
5 1 4.49895 45.3833 -4.4063
6 1 3.89028 44.8437 -3.96081
7 1 3.57075 44.0766 -3.41413
8 1 3.85802 43.3379 -2.80394
9 1 4.44356 43.2582 -2.11787
10 1 5.06661 43.1641 -1.39822
11 1 5.85651 43.2478 -0.892214
12 1 6.5356 42.6191 -0.965907
13 1 6.61745 41.7585 -1.36459
14 1 6.95937 40.9341 -1.45204
15 1 7.40887 40.3193 -1.96965
16 1 7.86778 39.9559 -2.73869
17 1 8.50458 39.9498 -3.41287
18 1 9.10074 39.4153 -3.95405
19 1 9.07706 38.6351 -3.48629
20 1 9.8438 38.2072 -3.16055
21 1 10.6629 37.9546 -2.74423
22 1 11.3226 38.3158 -2.16212
23 1 11.9841 37.7143 -1.87276
24 1 12.4286 36.9892 -2.24047
25 1 12.973 36.5706 -2.92654
26 1 13.7831 36.2869 -3.32316
27 1 14.5856 36.3525 -3.84092
28 1 15.5048 36.2208 -3.84212
29 1 16.2168 36.7717 -3.86789
30 1 17.105 37.1726 -3.68889
31 1 17.6928 37.3983 -2.98482
32 1 17.8313 37.3147 -2.08957
33 1 17.6294 37.856 -1.35543
34 1 17.4748 38.1017 -0.498975
35 1 16.9676 37.8298 0.216879
36 1 16.5608 37.4749 1.03262
37 1 16.2771 36.6726 1.35116
38 1 16.2271 35.7045 1.46844
39 1 15.458 35.5915 0.968282
40 1 14.4894 35.6374 0.95263
41 1 13.5856 35.6408 1.06733
42 1 13.4192 36.2996 0.414575
43 1 13.267 37.0683 -0.119894
44 1 13.349 37.9985 -0.0163613
45 1 13.2586 38.8146 -0.528219
46 1 13.8144 39.4214 -1.00037
47 1 14.2788 40.004 -1.53645
48 1 14.9105 39.9942 -2.23525
49 1 15.6864 39.8359 -2.84042
50 1 16.1581 39.2591 -3.50561
51 1 15.5219 38.7532 -4.04269
52 1 15.0237 38.4031 -4.79477
53 1 14.2075 38.0842 -5.12921
54 1 13.2928 37.8162 -4.91233
55 1 12.3868 37.7221 -4.64684
56 1 12.497 38.6552 -4.52231
57 1 12.1292 39.5603 -4.4195
58 1 11.6584 40.1657 -5.03852
59 1 11.4357 40.9851 -5.55631
60 1 11.4972 41.8636 -5.77189
61 1 10.7229 42.5759 -5.74667
62 1 10.3283 43.3363 -5.42231
63 1 9.77433 43.9766 -4.96812
64 1 10.1265 44.7035 -4.45493
ITEM: TIMESTEP
2740000
ITEM: NUMBER OF ATOMS
64
ITEM: BOX BOUNDS mm mm mm
-3.2000000000000000e+01 3.2000000000000000e+01
-3.2000000000000000e+01 4.7418464807579710e+01
-3.2000000000000000e+01 3.2000000000000000e+01
ITEM: ATOMS id type x y z
1 1 1.15637 47.3787 -4.24814
2 1 1.2203 47.3282 -5.18547
3 1 0.684562 47.3916 -5.97509
4 1 0.230978 47.2768 -6.79156
5 1 0.758675 46.688 -7.33673
6 1 1.12894 45.8969 -7.07663
7 1 1.57812 45.1231 -7.42084
8 1 2.10234 44.8671 -6.6829
9 1 2.47191 44.2775 -6.04319
10 1 2.77767 43.4347 -5.70479
11 1 2.84526 42.6704 -5.11422
12 1 2.91981 42.1076 -4.41854
13 1 2.9088 41.8213 -3.53788
14 1 3.28782 41.16 -2.96672
15 1 4.06551 40.7698 -3.36709
16 1 3.76363 39.8549 -3.34502
17 1 3.57709 38.9615 -3.05629
18 1 4.29412 38.4807 -3.3319
19 1 4.98868 37.8472 -3.29589
20 1 5.89585 37.7081 -3.16646
21 1 6.66099 38.2214 -3.23139
22 1 7.51723 38.5291 -2.98676
23 1 8.28951 38.8902 -3.32379
24 1 8.90389 39.2064 -3.90365
25 1 9.07688 39.1226 -4.80183
26 1 9.27134 39.4422 -5.66735
27 1 9.72213 39.8485 -6.38312
28 1 10.524 39.9688 -6.75722
29 1 11.1847 39.2882 -7.01473
30 1 12.0356 39.0315 -7.28462
31 1 12.7922 38.5505 -7.08958
32 1 13.4536 37.8699 -7.09252
33 1 13.9375 37.1282 -7.28774
34 1 13.2061 36.5414 -7.40842
35 1 12.6324 36.5736 -8.13039
36 1 11.7304 36.481 -8.24278
37 1 10.8988 36.1915 -7.86878
38 1 10.0907 35.8636 -7.63621
39 1 9.61996 35.1423 -7.32966
40 1 9.11206 34.8757 -6.51022
41 1 9.01129 34.5515 -5.56621
42 1 9.30206 34.7891 -4.74807
43 1 10.1082 34.9441 -4.38219
44 1 10.9013 34.591 -3.94588
45 1 11.0198 34.9856 -3.05924
46 1 11.3001 34.9373 -2.1265
47 1 11.0776 35.0973 -1.22175
48 1 11.1578 35.5798 -0.356632
49 1 11.6692 35.292 0.365751
50 1 12.1485 35.8389 0.980969
51 1 12.8471 36.5529 1.02914
52 1 13.5835 36.4815 1.54682
53 1 14.4736 36.4053 1.60829
54 1 15.3025 36.1859 1.2998
55 1 15.6144 36.6795 2.05904
56 1 15.0982 37.3056 2.4718
57 1 14.8586 38.1506 2.00558
58 1 14.4169 38.9541 1.7391
59 1 13.9425 39.7268 1.4719
60 1 13.0203 39.4917 1.44951
61 1 12.3085 39.8797 0.968967
62 1 12.0462 40.3127 0.172075
63 1 12.1035 40.7377 -0.695805
64 1 11.399 41.1806 -1.09594
ITEM: TIMESTEP
2750000
ITEM: NUMBER OF ATOMS
64
ITEM: BOX BOUNDS mm mm mm
-3.2000000000000000e+01 3.2000000000000000e+01
-3.2000000000000000e+01 4.9832521496121430e+01
-3.2000000000000000e+01 3.2000000000000000e+01
ITEM: ATOMS id type x y z
1 1 0.769403 49.7057 -8.07894
2 1 1.59401 49.4603 -8.37899
3 1 2.51341 49.6181 -8.4126
4 1 3.01135 49.2489 -7.61786
5 1 3.78617 49.1347 -7.01926
6 1 4.66562 49.349 -6.76568
7 1 5.52657 49.2571 -6.34575
8 1 5.94724 48.5043 -6.11594
9 1 5.81136 47.6969 -6.63087
10 1 5.76548 46.7722 -6.19463
11 1 5.37207 46.68 -5.30106
12 1 5.01515 46.2251 -4.55343
13 1 5.29251 45.6156 -3.91993
14 1 5.25487 44.7288 -3.63308
15 1 5.66456 43.9119 -3.21857
16 1 5.82734 43.2599 -2.62553
17 1 6.1034 42.5291 -2.14346
18 1 6.37006 42.1113 -1.34108
19 1 5.96024 41.2531 -1.30007
20 1 6.25375 40.3878 -1.02061
21 1 7.18632 40.3822 -0.781616
22 1 7.98221 40.714 -0.369539
23 1 8.88269 40.8328 -0.219919
24 1 9.60416 41.0598 -0.714659
25 1 10.2464 40.9803 -1.38288
26 1 10.6928 41.0352 -2.20502
27 1 11.0416 40.4707 -2.81737
28 1 11.0726 40.2678 -3.73687
29 1 10.8879 40.6868 -4.52783
30 1 10.7258 40.9403 -5.39098
31 1 10.3286 40.4723 -6.14196
32 1 9.87518 40.1143 -6.91536
33 1 9.47733 39.8944 -7.72434
34 1 8.77488 39.785 -8.35139
35 1 8.00532 39.3174 -8.66541
36 1 7.65525 39.249 -9.56292
37 1 6.74775 39.0267 -9.44904
38 1 5.81373 38.7346 -9.17024
39 1 5.54539 37.8232 -9.06206
40 1 5.10703 36.9794 -8.88046
41 1 4.6583 36.1174 -8.71354
42 1 4.95168 35.2116 -8.49757
43 1 5.87961 34.9781 -8.40441
44 1 6.64139 35.4738 -8.27576
45 1 6.80284 36.1625 -7.66929
46 1 7.22831 36.3181 -6.87174
47 1 7.4223 36.4725 -6.01218
48 1 7.328 36.6361 -5.08856
49 1 7.5512 36.9615 -4.19308
50 1 7.54116 36.8135 -3.22595
51 1 7.85239 37.2155 -2.41223
52 1 8.33408 37.6337 -1.73567
53 1 8.57379 37.7347 -0.829009
54 1 9.18421 38.1734 -0.300294
55 1 9.10993 38.1464 0.635782
56 1 9.41994 38.3358 1.54109
57 1 9.50601 38.8803 2.29632
58 1 9.50094 39.2664 3.15457
59 1 9.05225 39.9347 3.7179
60 1 9.07706 40.4181 4.51609
61 1 9.98077 40.6078 4.79948
62 1 10.9873 40.7507 4.8025
63 1 11.8757 40.6307 5.13361
64 1 12.3869 39.8885 5.31278
ITEM: TIMESTEP
2760000
ITEM: NUMBER OF ATOMS
64
ITEM: BOX BOUNDS mm mm mm
-3.2000000000000000e+01 3.2000000000000000e+01
-3.2000000000000000e+01 5.2826869582792057e+01
-3.2000000000000000e+01 3.2000000000000000e+01
ITEM: ATOMS id type x y z
1 1 9.86053 49.6919 0.699861
2 1 9.65924 50.5972 0.822507
3 1 9.54738 51.5077 1.06617
4 1 9.28784 52.0743 1.72681
5 1 8.42376 52.5088 1.6659
6 1 7.58242 52.8971 1.78585
7 1 6.69878 52.807 1.67125
8 1 6.24377 52.125 1.15707
9 1 5.41173 51.5964 1.07823
10 1 4.92097 51.009 1.64167
11 1 4.76028 50.1879 1.97799
12 1 5.09286 49.4032 1.4096
13 1 5.76357 48.7534 1.14939
14 1 6.06952 47.8716 1.08197
15 1 6.31932 47.0577 0.745189
16 1 6.59424 46.6828 -0.0360088
17 1 7.04028 46.3402 -0.746315
18 1 7.76419 45.7448 -0.764132
19 1 8.14407 44.9527 -1.09572
20 1 8.7624 44.5223 -1.7379
21 1 8.97703 44.3486 -2.62123
22 1 9.21247 44.2078 -3.52031
23 1 9.7013 43.9005 -4.22567
24 1 10.3625 43.8967 -4.88015
25 1 11.3768 43.8931 -4.84081
26 1 12.199 43.9946 -5.26431
27 1 13.046 44.3701 -5.36007
28 1 13.9279 44.4311 -5.67
29 1 14.7472 44.0518 -5.70629
30 1 15.0253 43.5077 -4.98935
31 1 15.2919 43.0985 -4.21556
32 1 15.3164 42.532 -3.43103
33 1 15.2594 41.7295 -2.91273
34 1 15.7746 40.9579 -3.25249
35 1 15.2398 40.6503 -3.94216
36 1 14.7082 40.1846 -4.55174
37 1 14.0345 40.5208 -5.11951
38 1 13.592 40.6259 -5.96903
39 1 13.1365 40.8456 -6.76223
40 1 12.5001 41.0184 -7.48028
41 1 12.5729 41.502 -8.23615
42 1 11.9878 41.9804 -8.90837
43 1 11.6408 42.826 -9.19466
44 1 11.4783 43.5975 -8.72258
45 1 10.9212 44.3767 -8.63488
46 1 10.3075 44.9204 -8.13489
47 1 10.1104 45.2103 -7.15498
48 1 10.2765 44.3719 -6.65583
49 1 10.0291 43.5706 -6.19869
50 1 9.1775 43.2255 -6.51108
51 1 8.46451 42.683 -6.70377
52 1 7.91713 42.237 -6.01759
53 1 7.51941 41.8533 -5.24984
54 1 7.38014 41.7544 -4.27961
55 1 7.20115 41.3112 -3.44995
56 1 7.36298 40.6876 -2.74259
57 1 7.85862 40.261 -2.0324
58 1 8.02413 39.6782 -1.35904
59 1 8.36707 38.8185 -0.962248
60 1 9.18824 38.3659 -1.20046
61 1 10.1647 38.2175 -1.13565
62 1 10.9617 38.4622 -1.50593
63 1 11.5901 38.1355 -0.809102
64 1 12.2704 37.9183 -0.240218
ITEM: TIMESTEP
2770000
ITEM: NUMBER OF ATOMS
64
ITEM: BOX BOUNDS mm mm mm
-3.2000000000000000e+01 3.2000000000000000e+01
-3.2000000000000000e+01 5.6804988508631837e+01
-3.2000000000000000e+01 3.2000000000000000e+01
ITEM: ATOMS id type x y z
1 1 14.1862 55.7051 2.24853
2 1 13.6545 56.3964 1.85845
3 1 13.1505 56.8061 1.25641
4 1 13.2606 56.0221 0.690471
5 1 12.4788 55.6441 0.43427
6 1 11.6497 55.4918 -0.184884
7 1 10.8847 55.7819 0.334616
8 1 9.96077 55.7958 0.276942
9 1 9.17457 56.2292 -0.0112109
10 1 8.23792 56.0722 -0.19088
11 1 7.73066 55.3404 -0.645972
12 1 7.09902 54.8361 -1.09685
13 1 7.0126 53.8869 -0.946464
14 1 7.45123 53.2679 -0.375854
15 1 8.14893 52.5785 -0.29203
16 1 8.83153 51.9361 -0.275822
17 1 9.29297 51.281 0.202767
18 1 10.0054 50.7592 0.564332
19 1 10.2072 49.9314 0.981869
20 1 10.0333 49.731 1.91161
21 1 9.33502 50.1197 2.38782
22 1 8.4647 49.8511 2.48744
23 1 7.79289 49.3422 2.08585
24 1 7.2121 48.6198 1.99597
25 1 6.95596 48.0884 1.2625
26 1 6.93507 47.5206 0.545668
27 1 7.34995 47.161 -0.23212
28 1 8.11879 47.0532 -0.709479
29 1 9.00783 47.3187 -0.522171
30 1 9.93996 47.2484 -0.297961
31 1 10.8243 46.9191 -0.18236
32 1 11.4978 46.4816 -0.671301
33 1 12.2385 45.9236 -0.702707
34 1 13.0211 45.5657 -1.0968
35 1 13.4272 44.754 -1.38431
36 1 13.8308 44.9572 -2.32125
37 1 14.718 44.7601 -2.63851
38 1 15.5851 44.6039 -2.95505
39 1 15.925 44.8756 -3.81551
40 1 15.6953 45.302 -4.65972
41 1 15.1283 44.7222 -5.14773
42 1 14.63 44.524 -5.89486
43 1 13.8671 44.3716 -6.41504
44 1 13.2173 43.7302 -6.53259
45 1 12.3838 43.6719 -6.90587
46 1 12.1067 43.7965 -7.78438
47 1 11.4281 44.2968 -8.33207
48 1 10.4796 44.5179 -8.24804
49 1 9.58987 44.5879 -8.4953
50 1 8.70124 44.734 -8.25802
51 1 8.18293 45.0645 -7.58866
52 1 7.61577 44.7795 -6.93757
53 1 7.30799 44.4938 -6.1079
54 1 6.77142 44.1538 -5.38428
55 1 6.61225 44.1204 -4.47969
56 1 6.66909 43.7927 -3.63173
57 1 6.66031 42.8634 -3.66952
58 1 6.70104 42.2375 -4.41331
59 1 7.5654 42.1702 -4.81953
60 1 7.16633 41.3343 -4.95763
61 1 6.58474 40.7222 -5.41818
62 1 6.01414 40.9668 -4.6784
63 1 5.3359 41.4705 -4.22881
64 1 4.70988 41.2894 -3.58742
ITEM: TIMESTEP
2780000
ITEM: NUMBER OF ATOMS
64
ITEM: BOX BOUNDS mm mm mm
-3.2000000000000000e+01 3.2000000000000000e+01
-3.2000000000000000e+01 5.5456095672721887e+01
-3.2000000000000000e+01 3.2000000000000000e+01
ITEM: ATOMS id type x y z
1 1 13.9625 48.86 5.30964
2 1 13.4345 49.629 5.4219
3 1 12.8362 50.3 5.1882
4 1 11.8489 50.3213 5.22712
5 1 11.0211 50.7746 5.30568
6 1 10.4841 51.5059 5.06736
7 1 9.81219 52.1009 4.69069
8 1 9.87607 53.0732 4.50749
9 1 10.4976 53.7013 4.44249
10 1 11.315 54.1318 4.55271
11 1 11.526 54.6052 3.74443
12 1 11.0018 55.0431 3.13151
13 1 10.3799 54.9102 2.43394
14 1 9.88821 55.4368 1.83024
15 1 9.48419 55.4123 1.04019
16 1 9.69646 55.3111 0.149027
17 1 9.83841 54.4378 -0.254976
18 1 10.2029 53.9574 -0.944435
19 1 9.85102 53.9572 -1.80091
20 1 9.95005 53.7508 -2.74646
21 1 10.6837 53.4024 -3.19539
22 1 10.7253 52.4826 -3.42961
23 1 11.3158 51.71 -3.60678
24 1 11.6198 51.1142 -4.30103
25 1 12.4783 50.7204 -4.39182
26 1 12.7968 50.2572 -3.62985
27 1 12.368 49.7563 -2.97168
28 1 11.6495 49.1813 -2.77041
29 1 11.9555 48.2918 -2.99659
30 1 12.4047 47.6369 -2.43966
31 1 12.709 46.7036 -2.3725
32 1 12.6498 45.8236 -2.66519
33 1 12.7209 45.2001 -3.38255
34 1 12.9566 44.4876 -4.02175
35 1 13.9058 44.5038 -4.36758
36 1 14.5069 43.7677 -4.50921
37 1 14.5995 43.4337 -5.39776
38 1 15.056 42.7908 -5.93915
39 1 15.7121 42.1667 -6.05336
40 1 15.7593 41.5011 -6.66813
41 1 14.8407 41.7919 -7.06349
42 1 13.9986 41.6389 -7.45833
43 1 13.1973 41.4123 -7.87258
44 1 12.3863 41.8707 -8.14269
45 1 11.9152 42.6585 -8.31671
46 1 11.4123 43.4454 -8.57545
47 1 10.6156 43.9545 -8.87752
48 1 9.77195 43.8239 -9.27417
49 1 8.85766 43.8474 -9.53271
50 1 7.96589 43.8296 -9.80701
51 1 7.05607 43.9186 -10.1026
52 1 6.4121 43.2925 -9.84805
53 1 5.7516 42.9017 -9.28442
54 1 5.11191 42.9516 -8.5797
55 1 5.22876 43.2352 -7.70372
56 1 5.5967 43.9307 -7.09368
57 1 6.36299 44.478 -7.01651
58 1 7.22234 44.9478 -6.69225
59 1 7.81192 45.5114 -6.30653
60 1 8.22455 46.1713 -5.76928
61 1 7.96489 46.6399 -5.02206
62 1 7.62811 47.5077 -4.81338
63 1 6.73768 47.7036 -4.52301
64 1 5.88367 48.1905 -4.56495
ITEM: TIMESTEP
2790000
ITEM: NUMBER OF ATOMS
64
ITEM: BOX BOUNDS mm mm mm
-3.2000000000000000e+01 3.2000000000000000e+01
-3.2000000000000000e+01 5.2786158902860443e+01
-3.2000000000000000e+01 3.2000000000000000e+01
ITEM: ATOMS id type x y z
1 1 6.58913 52.7351 4.95819
2 1 6.97064 52.4788 4.11921
3 1 7.3441 51.606 3.9741
4 1 7.46832 51.0273 4.70509
5 1 7.97498 50.744 5.40817
6 1 7.89638 50.0993 6.15406
7 1 8.29137 49.2787 6.3346
8 1 9.05098 48.67 6.35661
9 1 9.88342 48.2092 6.14117
10 1 9.87786 47.7416 5.2965
11 1 9.49673 47.6238 4.46968
12 1 9.18594 47.8695 3.63259
13 1 9.16968 48.2707 2.76651
14 1 9.1548 48.0806 1.86378
15 1 9.19308 48.5669 1.10303
16 1 9.37347 48.3803 0.202783
17 1 9.69755 48.2234 -0.697576
18 1 10.2383 48.2052 -1.45333
19 1 10.6021 48.1884 -2.29435
20 1 11.4956 48.5796 -2.48077
21 1 12.1393 48.7132 -3.13605
22 1 12.8626 48.4754 -3.7009
23 1 13.5446 47.8719 -3.66104
24 1 14.3923 47.6906 -3.32468
25 1 14.4759 47.3098 -2.47094
26 1 14.112 46.4655 -2.22311
27 1 13.8446 45.5534 -1.98678
28 1 13.0784 45.5667 -1.41572
29 1 12.4682 45.1341 -0.895558
30 1 11.6786 45.0546 -1.30966
31 1 10.7201 45.0308 -1.44547
32 1 10.1016 45.3061 -2.11366
33 1 9.20892 45.6919 -2.07098
34 1 9.13226 46.4966 -2.46024
35 1 9.77046 46.7125 -3.16073
36 1 10.7227 46.9084 -3.23212
37 1 11.4209 47.352 -3.76965
38 1 12.1464 47.3911 -4.37154
39 1 12.8078 47.8602 -4.94995
40 1 13.674 48.241 -5.18269
41 1 14.0139 48.9056 -5.71499
42 1 13.9347 49.8381 -5.58555
43 1 13.6953 50.4276 -6.25278
44 1 13.1408 51.0602 -6.6386
45 1 12.6041 50.3232 -6.55341
46 1 11.9919 49.6632 -6.74494
47 1 11.3427 49.1111 -7.23482
48 1 10.6656 48.6113 -7.63173
49 1 9.83844 48.7249 -8.05482
50 1 9.126 48.7223 -8.66025
51 1 8.63059 48.4836 -9.39119
52 1 7.92946 48.5617 -10.0194
53 1 7.40464 49.3081 -9.89044
54 1 7.19766 49.9113 -10.5887
55 1 7.52786 49.727 -11.4529
56 1 7.69949 49.1856 -12.2379
57 1 7.69046 48.6763 -13.0125
58 1 7.7416 47.7937 -13.2702
59 1 7.13264 47.2869 -12.7475
60 1 7.55015 46.4844 -12.6238
61 1 8.2659 45.8875 -12.5009
62 1 8.81776 45.102 -12.325
63 1 8.93807 44.2919 -11.8384
64 1 8.96978 43.4686 -11.4596
ITEM: TIMESTEP
2800000
ITEM: NUMBER OF ATOMS
64
ITEM: BOX BOUNDS mm mm mm
-3.2000000000000000e+01 3.2000000000000000e+01
-3.2000000000000000e+01 5.4309324736860901e+01
-3.2000000000000000e+01 3.2000000000000000e+01
ITEM: ATOMS id type x y z
1 1 10.6372 54.156 4.07848
2 1 10.0402 53.6657 3.59907
3 1 9.92818 53.0953 2.88681
4 1 9.09027 53.0941 2.39977
5 1 8.62871 52.8011 1.64003
6 1 7.88884 52.8619 1.03972
7 1 7.18982 52.5157 0.541327
8 1 7.66309 52.2702 -0.284704
9 1 7.52995 51.6243 -0.912082
10 1 7.68269 51.5649 -1.81097
11 1 7.70598 50.8492 -2.4346
12 1 8.01009 50.1287 -3.00334
13 1 7.77852 49.488 -3.67512
14 1 7.00431 49.528 -4.17595
15 1 6.39551 48.8671 -4.4441
16 1 5.89255 48.165 -4.00801
17 1 5.55042 47.3604 -4.33267
18 1 5.81591 46.9564 -3.50293
19 1 5.80109 46.6124 -2.60087
20 1 6.06187 46.5666 -1.71793
21 1 6.56877 47.1337 -1.06023
22 1 6.26485 47.6287 -0.335518
23 1 6.29154 47.9542 0.533279
24 1 7.01047 48.0377 1.16204
25 1 7.95211 48.0336 1.36332
26 1 8.76563 48.6191 1.36097
27 1 9.5622 49.1091 1.10605
28 1 10.4167 48.7811 0.856917
29 1 11.0701 48.6981 0.116622
30 1 11.9682 48.6787 -0.144718
31 1 12.579 49.0619 -0.682923
32 1 13.3214 49.3404 -1.16143
33 1 13.8742 49.5954 -1.88979
34 1 14.0486 50.1306 -2.66933
35 1 14.2109 50.6215 -3.44267
36 1 13.7129 51.2351 -3.96936
37 1 14.3553 51.8755 -4.3325
38 1 14.4767 52.38 -5.12232
39 1 13.9096 52.8805 -5.6667
40 1 13.2815 52.7365 -6.38313
41 1 12.8302 52.7333 -7.19108
42 1 12.1053 52.3011 -7.57148
43 1 12.1292 52.0493 -8.52127
44 1 12.0704 51.3019 -9.07201
45 1 11.7853 50.7254 -9.82562
46 1 11.6484 50.1451 -10.5394
47 1 11.6831 50.242 -11.4959
48 1 11.659 50.0227 -12.4125
49 1 11.1857 50.21 -13.1851
50 1 10.9394 50.8004 -13.8937
51 1 10.2254 51.0278 -14.4304
52 1 9.65072 51.4109 -15.0957
53 1 8.86855 51.8105 -15.3775
54 1 8.19168 51.6248 -14.7325
55 1 7.66057 51.563 -13.9582
56 1 7.38412 52.2014 -13.2879
57 1 7.02377 52.1446 -12.3969
58 1 6.29867 52.1156 -11.7459
59 1 5.35418 51.9918 -11.6414
60 1 4.59728 51.5195 -11.8919
61 1 4.07119 50.7929 -12.1142
62 1 3.1952 50.5134 -11.8171
63 1 3.19208 49.8252 -11.1279
64 1 2.99677 49.4781 -10.2759
ITEM: TIMESTEP
2810000
ITEM: NUMBER OF ATOMS
64
ITEM: BOX BOUNDS mm mm mm
-3.2000000000000000e+01 3.2000000000000000e+01
-3.2000000000000000e+01 5.1617144997687113e+01
-3.2000000000000000e+01 3.2000000000000000e+01
ITEM: ATOMS id type x y z
1 1 9.86009 51.2965 3.76191
2 1 9.0432 51.2026 3.29823
3 1 8.43363 51.5204 2.67157
4 1 7.52632 51.3544 2.47398
5 1 6.79998 51.3526 1.93448
6 1 6.13192 51.5091 1.31689
7 1 5.51173 51.0868 0.727119
8 1 5.00355 50.9523 -0.0581295
9 1 4.45109 50.5218 -0.673355
10 1 3.70638 49.9774 -0.613344
11 1 3.84528 49.1011 -0.972859
12 1 4.25972 48.2937 -0.853594
13 1 4.70112 47.4744 -0.670514
14 1 5.09838 47.2443 0.140389
15 1 5.26445 46.3235 0.510694
16 1 5.08437 45.4514 0.801623
17 1 5.73492 44.9396 1.23556
18 1 5.86296 44.4655 2.00156
19 1 5.99243 44.3977 2.91724
20 1 5.95932 44.6466 3.82753
21 1 6.37391 45.0352 4.56925
22 1 7.15002 45.5432 4.44127
23 1 7.74956 46.0914 4.80168
24 1 8.14785 46.8512 4.3945
25 1 8.79629 47.0424 3.76591
26 1 9.71499 47.3597 3.55418
27 1 10.4317 47.9806 3.5684
28 1 10.5113 48.7201 4.06679
29 1 10.7492 49.211 4.80813
30 1 11.2173 49.6456 4.11741
31 1 11.5437 49.9941 3.26482
32 1 11.6042 49.6729 2.3792
33 1 12.3347 49.1601 2.14188
34 1 12.894 48.6375 1.5524
35 1 12.9981 48.7188 0.616592
36 1 12.9412 48.7856 -0.309403
37 1 12.32 49.0856 -0.978779
38 1 12.1281 49.0857 -1.85479
39 1 12.4055 49.343 -2.73946
40 1 12.5211 48.6957 -3.4259
41 1 11.9929 48.5674 -4.19774
42 1 11.8541 48.4837 -5.141
43 1 11.479 48.4394 -6.01579
44 1 11.7635 48.205 -6.85681
45 1 12.199 48.5222 -7.63064
46 1 11.9912 49.4321 -7.81003
47 1 12.3367 50.1861 -8.1897
48 1 12.9478 50.7418 -8.66046
49 1 13.1016 50.3417 -9.49563
50 1 13.005 49.8739 -10.2983
51 1 12.1063 49.7365 -10.0458
52 1 11.2347 49.4311 -9.87938
53 1 10.5568 48.9283 -9.3998
54 1 9.8472 48.339 -9.07003
55 1 8.9269 48.4384 -9.21986
56 1 8.24437 48.3084 -9.94408
57 1 7.52904 48.0519 -10.4859
58 1 6.68898 47.5532 -10.3219
59 1 6.22172 47.1812 -9.58234
60 1 6.03068 46.9347 -8.73708
61 1 5.77576 46.4506 -7.9237
62 1 5.93918 46.0756 -7.02093
63 1 5.86873 45.2159 -6.75029
64 1 6.35714 44.441 -6.5893
ITEM: TIMESTEP
2820000
ITEM: NUMBER OF ATOMS
64
ITEM: BOX BOUNDS mm mm mm
-3.2000000000000000e+01 3.2000000000000000e+01
-3.2000000000000000e+01 5.2478351237339979e+01
-3.2000000000000000e+01 3.2000000000000000e+01
ITEM: ATOMS id type x y z
1 1 3.21737 49.4498 -0.352161
2 1 2.31954 49.5272 -0.517444
3 1 1.38659 49.56 -0.586793
4 1 0.668599 50.113 -0.236791
5 1 -0.149309 50.5949 -0.137235
6 1 -0.782934 51.2132 0.281867
7 1 -1.36497 50.6956 0.85965
8 1 -0.989073 49.8764 1.17225
9 1 -0.102781 49.6427 1.02328
10 1 0.283538 48.7667 0.942054
11 1 1.06833 48.1917 0.994826
12 1 1.77933 47.5417 1.03207
13 1 1.97416 47.2486 1.93701
14 1 2.4578 47.4511 2.76151
15 1 3.32015 47.339 3.22563
16 1 4.21634 47.2422 3.63971
17 1 5.14275 46.8999 3.71841
18 1 6.05375 46.7446 3.74204
19 1 6.63829 46.0389 4.13731
20 1 7.17962 45.3472 4.57641
21 1 8.0593 45.0229 4.785
22 1 8.77179 45.3821 5.34164
23 1 9.51399 45.7926 5.63449
24 1 10.2154 46.3883 5.77645
25 1 10.7968 47.0725 5.75069
26 1 11.3143 47.7462 5.42327
27 1 11.428 48.4595 4.81612
28 1 11.672 49.1281 4.26241
29 1 12.2363 49.7547 3.97478
30 1 12.8438 50.3018 3.51104
31 1 12.8694 51.0293 2.91921
32 1 12.4094 51.6355 2.41377
33 1 12.1378 52.268 1.76158
34 1 11.3757 52.3583 1.21892
35 1 11.3492 52.0684 0.295447
36 1 10.7315 52.3638 -0.337249
37 1 10.6515 52.109 -1.19761
38 1 10.9592 52.0229 -2.12955
39 1 11.1609 51.6765 -2.98516
40 1 10.6368 51.2862 -3.74635
41 1 10.599 51.346 -4.6801
42 1 10.6968 51.5961 -5.58439
43 1 11.0091 51.5769 -6.49389
44 1 11.3318 52.0137 -7.30722
45 1 11.9559 51.7912 -8.00393
46 1 12.0883 51.7512 -8.98044
47 1 12.4248 51.1763 -9.63722
48 1 12.6076 50.3227 -9.99918
49 1 12.1332 49.5534 -10.2644
50 1 11.906 48.7772 -10.7065
51 1 11.0177 48.966 -10.542
52 1 10.2898 49.3158 -11.033
53 1 9.89867 49.292 -11.8382
54 1 10.0484 49.4605 -12.7811
55 1 9.99481 49.4639 -13.719
56 1 9.35054 50.111 -13.5435
57 1 8.46694 50.1264 -13.7887
58 1 7.68995 50.6254 -13.8192
59 1 7.90784 51.2088 -13.1143
60 1 8.03132 51.7244 -12.3774
61 1 8.38863 51.6429 -11.5607
62 1 8.89102 51.3673 -10.7851
63 1 9.20572 50.858 -10.0941
64 1 9.03818 50.2469 -9.3947
ITEM: TIMESTEP
2830000
ITEM: NUMBER OF ATOMS
64
ITEM: BOX BOUNDS mm mm mm
-3.2000000000000000e+01 3.2000000000000000e+01
-3.2000000000000000e+01 5.5562712476617961e+01
-3.2000000000000000e+01 3.2000000000000000e+01
ITEM: ATOMS id type x y z
1 1 1.75532 47.3217 -3.2101
2 1 2.60092 47.4258 -3.55008
3 1 3.44287 47.6179 -3.27303
4 1 3.78664 47.5807 -2.43534
5 1 4.12848 46.7449 -2.73632
6 1 4.34678 45.8687 -2.64293
7 1 4.54061 44.9878 -2.98863
8 1 4.21568 44.1386 -2.72775
9 1 3.99892 43.3021 -2.38065
10 1 4.62072 42.7451 -2.07602
11 1 5.53624 42.8163 -2.3373
12 1 6.37468 43.1898 -2.68027
13 1 6.91761 43.903 -2.74523
14 1 7.62321 44.4933 -2.96525
15 1 7.85309 45.3973 -3.29777
16 1 8.36246 46.054 -2.98444
17 1 8.85481 46.882 -3.12985
18 1 9.71696 47.057 -2.89938
19 1 10.516 47.0901 -2.39765
20 1 11.0273 47.2762 -1.65865
21 1 11.2527 47.0536 -0.781122
22 1 11.5032 46.7736 0.0706154
23 1 11.7035 46.4133 0.920739
24 1 11.9137 46.3082 1.88999
25 1 12.1121 47.2063 2.08873
26 1 12.6539 47.936 2.08419
27 1 13.4412 48.409 2.30028
28 1 14.3445 48.3852 2.44607
29 1 15.2274 48.1673 2.26182
30 1 16.0513 48.0496 1.89923
31 1 15.9902 47.9085 0.980066
32 1 15.9889 47.8241 0.00467665
33 1 16.3441 48.2721 -0.759942
34 1 16.4202 48.4161 -1.68447
35 1 16.2379 49.1454 -2.25394
36 1 15.7538 49.7857 -2.79018
37 1 15.7814 50.0802 -3.70644
38 1 15.317 50.2097 -4.51234
39 1 15.0264 50.8665 -5.0952
40 1 14.2697 51.3685 -5.27181
41 1 13.7838 51.5995 -4.4977
42 1 13.9351 52.5161 -4.31882
43 1 13.8017 53.3702 -3.98627
44 1 13.1597 53.9377 -4.38024
45 1 12.7101 54.0071 -5.24712
46 1 12.9721 54.4187 -6.01654
47 1 12.9162 54.2265 -6.91048
48 1 12.5446 53.4263 -7.18687
49 1 13.0098 52.6466 -7.48785
50 1 13.8866 52.5235 -7.87295
51 1 14.5857 52.5222 -8.50231
52 1 14.9211 52.5306 -9.40814
53 1 15.2882 52.7893 -10.2593
54 1 16.0279 53.03 -10.8466
55 1 16.5382 53.5261 -11.4395
56 1 16.7688 54.2562 -12.0289
57 1 16.9439 54.5332 -12.9275
58 1 16.7282 54.3996 -13.7972
59 1 16.3909 54.9374 -14.4904
60 1 15.4665 54.9146 -14.4982
61 1 14.4969 55.0105 -14.2867
62 1 14.1357 55.3536 -13.475
63 1 13.4585 55.4241 -12.8325
64 1 13.4199 55.2307 -11.8501
ITEM: TIMESTEP
2840000
ITEM: NUMBER OF ATOMS
64
ITEM: BOX BOUNDS mm mm mm
-3.2000000000000000e+01 3.2000000000000000e+01
-3.2000000000000000e+01 5.2425182112908026e+01
-3.2000000000000000e+01 3.2000000000000000e+01
ITEM: ATOMS id type x y z
1 1 4.31035 38.8402 -2.23961
2 1 3.51854 38.8566 -1.82159
3 1 3.35806 39.5149 -1.1375
4 1 3.60878 40.3376 -0.695747
5 1 3.2116 41.1678 -0.611959
6 1 2.86307 41.8869 -1.07062
7 1 2.65449 42.7992 -1.17325
8 1 2.80199 43.7148 -1.01943
9 1 3.49432 44.344 -1.07817
10 1 4.28056 44.7391 -1.34929
11 1 5.06721 44.5685 -1.94803
12 1 5.97501 44.885 -2.09798
13 1 6.80662 45.3036 -2.08013
14 1 7.31519 46.0494 -1.68961
15 1 7.98644 46.1736 -0.996532
16 1 8.53742 45.5214 -0.53011
17 1 9.03712 44.7417 -0.627669
18 1 9.41753 43.8731 -0.466559
19 1 9.67204 42.9559 -0.120787
20 1 10.1935 42.3071 -0.561247
21 1 11.0908 42.3087 -0.351791
22 1 11.6522 42.765 0.278677
23 1 12.3243 43.2557 0.773747
24 1 12.9241 44.0327 0.622384
25 1 13.4935 44.731 0.373738
26 1 13.7649 45.5174 -0.0502694
27 1 14.1156 46.2406 -0.517795
28 1 14.5599 46.814 -1.20553
29 1 14.5612 47.3003 -2.01542
30 1 14.7331 47.2418 -2.91928
31 1 14.99 47.3921 -3.76089
32 1 15.3002 48.2429 -3.84021
33 1 14.8484 49.1144 -4.05224
34 1 14.28 49.5001 -3.43
35 1 13.3874 49.2143 -3.45049
36 1 12.7395 48.7725 -4.02214
37 1 13.0437 47.8941 -4.33603
38 1 13.3458 47.074 -4.69744
39 1 14.0455 46.4426 -4.66449
40 1 14.9393 46.2509 -4.76697
41 1 15.6588 46.6289 -5.27263
42 1 15.6751 46.3256 -6.14798
43 1 15.4875 46.5381 -7.02459
44 1 14.9683 46.881 -7.77045
45 1 15.1401 47.4294 -8.48181
46 1 15.0919 48.4012 -8.65622
47 1 14.9945 49.1444 -9.26431
48 1 15.3006 49.7171 -9.97593
49 1 15.2963 50.3435 -10.6384
50 1 15.419 51.1962 -11.0062
51 1 16.1006 51.9038 -10.9843
52 1 16.9172 52.2365 -11.2265
53 1 17.732 51.9573 -11.5735
54 1 17.5758 51.0159 -11.7951
55 1 17.565 50.7421 -12.6717
56 1 18.2832 50.578 -13.2229
57 1 18.7304 49.8592 -13.6257
58 1 19.0951 49.0239 -13.7453
59 1 19.9664 49.0684 -13.9976
60 1 20.9072 49.2734 -14.0898
61 1 21.7592 48.9583 -14.4843
62 1 22.6101 49.3304 -14.6862
63 1 23.1304 49.1989 -13.9301
64 1 22.744 49.1278 -13.0464
ITEM: TIMESTEP
2850000
ITEM: NUMBER OF ATOMS
64
ITEM: BOX BOUNDS mm mm mm
-3.2000000000000000e+01 3.2000000000000000e+01
-3.2000000000000000e+01 5.5303373371286312e+01
-3.2000000000000000e+01 3.2000000000000000e+01
ITEM: ATOMS id type x y z
1 1 3.52744 40.0167 1.87605
2 1 2.77128 40.463 1.51407
3 1 2.59015 40.5136 0.594407
4 1 2.60177 40.4338 -0.338902
5 1 2.73753 40.6623 -1.2064
6 1 3.59884 40.7772 -0.924648
7 1 4.34983 41.2628 -0.467505
8 1 5.09876 41.8044 -0.52618
9 1 5.57998 42.2751 0.143213
10 1 6.51084 42.0701 0.122357
11 1 7.15413 41.4094 0.284216
12 1 8.00237 41.0767 0.421721
13 1 8.32587 40.8301 1.2798
14 1 9.18244 40.4662 1.34903
15 1 9.741 39.669 1.27464
16 1 10.664 39.4619 1.19658
17 1 11.4797 40.0709 1.21489
18 1 11.7222 40.9496 1.08803
19 1 11.1948 41.712 1.10663
20 1 11.9942 42.2124 1.07111
21 1 12.5471 42.561 0.405297
22 1 12.6438 43.3013 -0.208675
23 1 12.7966 44.0197 -0.812351
24 1 12.9441 44.7317 -1.45909
25 1 13.2489 45.497 -1.95399
26 1 13.2996 46.4059 -2.02551
27 1 12.5593 46.8772 -2.41473
28 1 12.2632 47.5863 -2.92101
29 1 11.6449 48.2736 -2.76513
30 1 11.3809 48.882 -2.09485
31 1 11.3873 49.5182 -1.34719
32 1 11.6408 50.368 -1.05345
33 1 11.8916 51.2558 -0.870789
34 1 12.4841 51.9367 -0.560894
35 1 13.3962 51.8929 -0.264647
36 1 13.9982 51.4508 0.289111
37 1 14.9303 51.4524 0.43838
38 1 15.245 50.6767 0.0407733
39 1 15.9411 50.3107 -0.507586
40 1 16.8585 50.4668 -0.519085
41 1 17.3997 51.1932 -0.960918
42 1 17.861 51.1389 -1.80456
43 1 18.3285 51.4339 -2.5232
44 1 19.0124 51.8927 -2.92464
45 1 19.8084 52.3326 -3.08291
46 1 20.3418 52.8681 -3.52648
47 1 20.2898 53.5067 -4.22249
48 1 20.1415 53.939 -5.02915
49 1 20.1406 54.3596 -5.86739
50 1 20.392 54.235 -6.7928
51 1 20.6206 53.624 -7.44584
52 1 20.8944 53.5815 -8.30823
53 1 20.7379 54.1675 -9.00425
54 1 20.7068 54.8576 -9.67468
55 1 21.47 55.0666 -10.1639
56 1 21.9061 55.1501 -10.9742
57 1 22.4492 55.2953 -11.6946
58 1 22.7627 55.1007 -12.5935
59 1 23.7098 55.1034 -12.5825
60 1 24.6761 54.9669 -12.6756
61 1 24.4568 54.1644 -13.1818
62 1 25.0437 53.4199 -13.1637
63 1 25.7771 52.9877 -13.5391
64 1 26.1514 52.1756 -13.3232
ITEM: TIMESTEP
2860000
ITEM: NUMBER OF ATOMS
64
ITEM: BOX BOUNDS mm mm mm
-3.2000000000000000e+01 3.2000000000000000e+01
-3.2000000000000000e+01 5.5478288366989290e+01