ITEM: TIMESTEP
1440000
ITEM: NUMBER OF ATOMS
64
ITEM: BOX BOUNDS mm mm mm
-3.2000000000000000e+01 3.2000000000000000e+01
-3.2000000000000000e+01 3.2000000000000000e+01
-3.2000000000000000e+01 3.2000000000000000e+01
ITEM: ATOMS id type x y z
1 1 6.3034 16.1547 -10.3099
2 1 7.06492 16.7053 -10.0778
3 1 7.83379 16.7697 -10.5759
4 1 8.36132 17.2493 -9.96875
5 1 8.92343 17.4648 -10.7594
6 1 8.57467 17.2294 -11.5857
7 1 8.22334 16.305 -11.7128
8 1 8.50179 16.3076 -12.6357
9 1 9.13166 16.255 -13.3166
10 1 9.76638 16.439 -12.6953
11 1 9.35213 16.0712 -11.9538
12 1 9.84894 16.6852 -11.4585
13 1 10.0095 17.6219 -11.4319
14 1 9.8695 18.4822 -11.2314
15 1 10.4279 18.8843 -10.6202
16 1 11.3231 19.1807 -10.7852
17 1 11.1004 18.9945 -11.7112
18 1 11.7629 18.9458 -12.3804
19 1 11.4868 19.5007 -13.0376
20 1 11.8979 19.441 -13.8668
21 1 12.7805 19.0794 -13.7263
22 1 13.5906 19.08 -13.3605
23 1 14.3285 18.5572 -13.5785
24 1 14.5585 17.6388 -13.6699
25 1 13.7797 17.2493 -13.3927
26 1 13.7106 16.3388 -13.5103
27 1 14.3207 16.6238 -14.183
28 1 13.4964 16.4803 -14.7006
29 1 14.0794 15.7756 -15.1332
30 1 13.2582 15.377 -15.4276
31 1 12.3554 15.3234 -15.5193
32 1 11.3508 15.6044 -15.4257
33 1 11.596 16.205 -16.153
34 1 11.4686 16.0488 -17.0705
35 1 11.9209 16.6857 -17.6007
36 1 11.6007 16.2498 -18.3596
37 1 12.162 16.2068 -19.0919
38 1 11.6313 16.4071 -19.834
39 1 10.7167 16.6196 -19.5567
40 1 9.78518 16.5955 -19.4116
41 1 9.52224 17.544 -19.3662
42 1 8.62594 17.7184 -19.1182
43 1 7.90837 17.674 -18.4251
44 1 6.96662 17.6976 -18.7412
45 1 6.16196 17.9138 -19.236
46 1 5.51105 17.434 -18.7153
47 1 5.92494 16.5192 -18.9187
48 1 5.2506 15.846 -18.7847
49 1 4.9411 15.0347 -19.0653
50 1 4.1147 14.5151 -19.0774
51 1 3.80445 13.6598 -18.7249
52 1 3.27836 13.0257 -18.1994
53 1 3.09967 13.2419 -17.2793
54 1 2.61294 13.3811 -16.4699
55 1 3.26618 13.6002 -15.8702
56 1 3.44612 14.0768 -15.1041
57 1 3.63553 13.2082 -14.6724
58 1 4.17042 13.2003 -13.9182
59 1 3.99375 13.5363 -13.0945
60 1 3.64808 14.3882 -13.3138
61 1 3.79654 14.7299 -12.4237
62 1 4.62045 14.3807 -12.6961
63 1 4.97536 14.4731 -11.8077
64 1 5.88343 14.457 -11.6107
ITEM: TIMESTEP
1450000
ITEM: NUMBER OF ATOMS
64
ITEM: BOX BOUNDS mm mm mm
-3.2000000000000000e+01 3.2000000000000000e+01
-3.2000000000000000e+01 3.2000000000000000e+01
-3.2000000000000000e+01 3.2000000000000000e+01
ITEM: ATOMS id type x y z
1 1 5.40127 13.6321 -12.4423
2 1 4.65311 13.8797 -12.906
3 1 3.81892 14.1555 -13.3564
4 1 3.40481 14.9102 -13.7433
5 1 4.04429 15.5129 -14.1062
6 1 3.38818 15.6016 -14.7742
7 1 3.77916 15.4037 -15.6095
8 1 4.5491 15.4238 -15.106
9 1 4.65293 16.3203 -15.3231
10 1 5.45817 16.8516 -15.3786
11 1 6.38291 16.9929 -15.3859
12 1 7.24193 17.528 -15.3228
13 1 7.79932 18.0722 -14.8741
14 1 8.4403 18.0429 -15.5048
15 1 8.61596 18.5385 -16.2772
16 1 9.0364 19.1977 -16.8957
17 1 9.85547 19.2721 -16.4266
18 1 9.63934 19.9665 -17.0706
19 1 9.8409 20.2644 -17.9281
20 1 10.5097 20.1602 -18.6123
21 1 10.7717 19.6655 -19.3851
22 1 11.3878 19.2927 -20.0367
23 1 11.6818 18.8488 -20.8311
24 1 11.5294 18.7708 -21.7973
25 1 12.3121 19.2145 -22.1234
26 1 13.0593 18.852 -22.5807
27 1 13.4062 18.0271 -22.2406
28 1 13.8492 17.8642 -21.3982
29 1 14.7662 17.9637 -21.6116
30 1 15.208 17.6138 -20.8589
31 1 15.2155 17.3352 -19.9469
32 1 15.8906 16.6937 -19.8533
33 1 16.7808 16.626 -19.5202
34 1 16.8154 15.7579 -19.8035
35 1 17.3876 15.5932 -19.0372
36 1 16.9956 15.9356 -18.2486
37 1 16.2947 15.5635 -17.7797
38 1 16.439 16.3868 -17.3669
39 1 16.7453 16.4347 -16.4342
40 1 16.4718 15.5362 -16.2882
41 1 16.4662 15.5074 -15.3754
42 1 16.0533 14.9219 -14.6926
43 1 15.2211 14.6195 -14.3831
44 1 15.2912 13.8425 -14.919
45 1 15.0552 12.9875 -15.2944
46 1 14.1752 12.9948 -15.7195
47 1 13.4661 12.5586 -15.3135
48 1 12.724 13.1704 -15.3233
49 1 12.2247 12.6278 -15.9085
50 1 11.9787 13.1865 -16.6534
51 1 11.1006 13.453 -16.7124
52 1 10.847 12.6383 -16.2523
53 1 10.6709 11.7666 -15.9481
54 1 10.2037 11.0547 -15.6492
55 1 9.50776 10.7976 -16.178
56 1 8.84527 11.4363 -16.067
57 1 7.96176 11.1846 -16.0735
58 1 7.0739 10.9982 -16.5389
59 1 6.41161 11.5397 -16.2729
60 1 6.23621 11.22 -17.1441
61 1 5.43002 11.301 -17.618
62 1 4.57128 11.5964 -17.4088
63 1 4.04108 10.8266 -17.6855
64 1 3.7638 9.99834 -17.2549
ITEM: TIMESTEP
1460000
ITEM: NUMBER OF ATOMS
64
ITEM: BOX BOUNDS mm mm mm
-3.2000000000000000e+01 3.2000000000000000e+01
-3.2000000000000000e+01 3.2000000000000000e+01
-3.2000000000000000e+01 3.2000000000000000e+01
ITEM: ATOMS id type x y z
1 1 2.32851 16.9718 -19.28
2 1 2.5295 16.1059 -19.5035
3 1 2.51016 15.3781 -18.9372
4 1 2.12448 15.3486 -18.0937
5 1 2.37586 14.4128 -18.0092
6 1 3.25926 14.2119 -17.8766
7 1 3.9065 13.7863 -18.4263
8 1 4.33971 14.1977 -19.1444
9 1 5.03222 14.7542 -18.8583
10 1 5.96203 15.0989 -18.8191
11 1 6.03076 15.143 -19.7698
12 1 6.19093 14.7643 -20.6269
13 1 5.63985 15.4233 -21.0955
14 1 5.87878 16.2789 -20.9006
15 1 6.83521 16.0715 -21.1496
16 1 7.52831 15.9509 -21.835
17 1 7.12922 15.0872 -21.6972
18 1 7.95009 15.0102 -21.0634
19 1 8.66325 14.5857 -21.5262
20 1 9.00723 14.9726 -20.7869
21 1 9.14674 15.2665 -19.885
22 1 9.83605 15.8934 -20.1227
23 1 10.4187 15.5239 -20.8093
24 1 9.71768 15.7154 -21.4179
25 1 9.36553 15.2928 -22.1349
26 1 9.92234 15.8442 -22.5826
27 1 10.5751 16.5433 -22.7958
28 1 10.1872 17.329 -22.575
29 1 9.88858 18.231 -22.3091
30 1 9.18003 18.8621 -22.1828
31 1 9.01092 19.7078 -22.5202
32 1 8.68874 20.1465 -21.7716
33 1 8.95013 21.0057 -21.4391
34 1 9.56986 20.6344 -20.8085
35 1 9.2156 20.8609 -19.991
36 1 9.21669 20.655 -19.0361
37 1 9.00063 19.9163 -19.561
38 1 9.34015 19.2274 -20.1315
39 1 9.79491 18.5241 -19.634
40 1 9.10334 18.3095 -18.9616
41 1 8.22501 18.1947 -18.7428
42 1 7.35465 18.0162 -19.0906
43 1 7.223 17.2006 -18.4973
44 1 6.3244 17.427 -18.8559
45 1 5.68675 16.8144 -19.1954
46 1 4.92772 16.4605 -18.8584
47 1 4.77582 16.2272 -17.958
48 1 5.42337 15.5768 -17.6107
49 1 6.3658 15.2927 -17.7242
50 1 6.03849 14.4403 -17.8634
51 1 5.42712 13.7672 -17.5737
52 1 5.22656 13.1747 -16.8337
53 1 5.95701 13.2546 -16.2617
54 1 5.66204 12.7028 -15.4907
55 1 6.01795 12.0891 -14.8494
56 1 6.13762 12.834 -14.2835
57 1 5.38171 12.4367 -13.9721
58 1 4.74226 12.8056 -14.6375
59 1 4.01683 12.5973 -15.3324
60 1 3.1533 12.7231 -15.5661
61 1 3.28859 12.9266 -16.5727
62 1 3.82637 12.4168 -17.2189
63 1 4.18644 12.6426 -18.0381
64 1 3.63092 12.2701 -18.7493
ITEM: TIMESTEP
1470000
ITEM: NUMBER OF ATOMS
64
ITEM: BOX BOUNDS mm mm mm
-3.2000000000000000e+01 3.2000000000000000e+01
-3.2000000000000000e+01 3.2000000000000000e+01
-3.2000000000000000e+01 3.2000000000000000e+01
ITEM: ATOMS id type x y z
1 1 4.53994 22.043 -20.0482
2 1 4.78675 22.879 -20.2631
3 1 5.62817 22.8931 -19.9291
4 1 6.54573 22.7132 -20.1341
5 1 6.72242 22.1381 -20.8271
6 1 7.26779 21.3452 -20.6765
7 1 7.77753 20.5865 -20.4236
8 1 8.42234 21.1508 -19.9927
9 1 8.86348 21.785 -20.5859
10 1 9.64153 21.8116 -21.0332
11 1 10.4071 21.8108 -21.6661
12 1 11.2513 21.6559 -22.0536
13 1 11.6263 21.1486 -21.3915
14 1 11.5614 20.4398 -20.8156
15 1 11.8341 20.0355 -20.0142
16 1 12.3555 19.2838 -19.8201
17 1 12.2776 18.7086 -20.5708
18 1 12.3793 17.9002 -21.0962
19 1 11.5797 17.4353 -21.1369
20 1 11.3187 16.9982 -20.3629
21 1 10.8504 16.7955 -19.6361
22 1 11.0643 17.1703 -18.7884
23 1 11.1154 17.9135 -18.1449
24 1 10.2398 18.1377 -18.3754
25 1 9.91811 17.7514 -17.6096
26 1 9.36271 17.0628 -17.8749
27 1 8.47593 16.8011 -17.9771
28 1 7.65192 16.6831 -18.4003
29 1 7.20627 17.5682 -18.5476
30 1 6.87748 18.4253 -18.5504
31 1 7.55136 18.6982 -17.9811
32 1 8.29653 18.8122 -17.4251
33 1 8.45614 19.2339 -16.6154
34 1 8.04398 20.0558 -16.8799
35 1 8.25464 20.756 -16.2554
36 1 8.57169 21.2317 -15.531
37 1 9.18876 21.9158 -15.1339
38 1 9.52653 22.2351 -14.2998
39 1 9.45995 22.3963 -13.3661
40 1 9.46241 21.4512 -13.3085
41 1 9.37448 20.5577 -13.6387
42 1 8.95619 19.8196 -13.3317
43 1 7.98572 19.8701 -13.1965
44 1 7.27571 19.7335 -13.7962
45 1 7.8777 20.4189 -14.1957
46 1 8.57626 19.9946 -14.6162
47 1 8.26994 19.2694 -15.1517
48 1 7.3951 18.9086 -15.4873
49 1 6.73168 18.3018 -15.8441
50 1 6.13862 19.0578 -15.9302
51 1 6.11481 19.4863 -16.7739
52 1 5.76789 18.6307 -17.123
53 1 5.1763 17.9789 -16.7619
54 1 4.63215 18.2444 -17.4409
55 1 4.44517 17.3037 -17.5003
56 1 4.84208 16.7705 -16.8505
57 1 4.37152 16.9492 -15.9803
58 1 3.64831 16.5058 -15.5512
59 1 3.37068 17.1124 -14.8999
60 1 4.13716 17.6598 -14.6779
61 1 3.50474 18.1341 -14.2123
62 1 2.63449 18.3655 -14.6979
63 1 2.19031 19.1445 -14.999
64 1 1.75285 19.7527 -15.5377
ITEM: TIMESTEP
1480000
ITEM: NUMBER OF ATOMS
64
ITEM: BOX BOUNDS mm mm mm
-3.2000000000000000e+01 3.2000000000000000e+01
-3.2000000000000000e+01 3.2000000000000000e+01
-3.2000000000000000e+01 3.2000000000000000e+01
ITEM: ATOMS id type x y z
1 1 8.44008 18.0506 -16.7437
2 1 7.5397 18.2033 -16.9795
3 1 7.38363 18.6126 -17.8021
4 1 7.19103 19.456 -17.3898
5 1 7.40856 20.0973 -16.7894
6 1 7.85104 20.8421 -17.1549
7 1 8.02382 21.766 -17.255
8 1 7.92873 22.0257 -18.1432
9 1 7.47985 22.5825 -18.7013
10 1 7.61656 22.7164 -19.5888
11 1 7.75278 21.8932 -20.042
12 1 7.92564 21.3965 -19.238
13 1 8.81634 21.7984 -19.1668
14 1 9.62742 22.2067 -18.9472
15 1 9.5869 23.0303 -19.3869
16 1 9.22886 23.6129 -18.7281
17 1 8.28999 23.7384 -18.5632
18 1 8.77684 23.6518 -17.6773
19 1 8.69454 24.0609 -16.8719
20 1 8.97675 24.9498 -17.1199
21 1 9.71403 24.875 -17.7177
22 1 10.1046 24.4671 -18.4717
23 1 10.262 23.6098 -18.1535
24 1 9.79833 23.6301 -17.3027
25 1 10.1651 23.3069 -16.5506
26 1 9.72873 23.3827 -15.7159
27 1 9.12869 22.7297 -15.3746
28 1 8.29848 23.0662 -15.0537
29 1 7.53483 23.0714 -14.5184
30 1 7.05171 22.3195 -14.1569
31 1 6.29305 22.3088 -14.7784
32 1 6.40835 21.9134 -15.6116
33 1 6.03497 21.2305 -15.1551
34 1 6.86048 20.9018 -14.8863
35 1 7.4803 20.6029 -14.2553
36 1 8.24181 20.2612 -13.7972
37 1 8.03367 19.4695 -13.3419
38 1 8.40814 20.182 -12.8159
39 1 9.14927 19.914 -13.3493
40 1 9.06933 19.172 -12.7957
41 1 8.43583 19.1653 -12.094
42 1 7.85946 19.8209 -11.7396
43 1 7.87564 19.8984 -10.7922
44 1 8.41572 19.1326 -10.7061
45 1 7.55406 18.8856 -10.9532
46 1 7.08481 18.711 -10.1568
47 1 6.65761 19.3243 -9.5392
48 1 5.85873 19.7897 -9.74344
49 1 6.26583 20.1095 -10.5272
50 1 6.2329 20.9332 -11.0406
51 1 6.17894 21.6668 -11.6053
52 1 5.78296 22.15 -12.3254
53 1 4.94012 21.9998 -11.9376
54 1 4.28586 22.1383 -12.6436
55 1 3.40989 22.2533 -12.8112
56 1 3.08708 21.3449 -12.6504
57 1 2.97297 20.5161 -13.0581
58 1 2.41145 21.2173 -13.3958
59 1 1.62037 21.7525 -13.2758
60 1 1.36872 22.6451 -13.1204
61 1 1.04793 22.9153 -13.9696
62 1 1.81213 22.7518 -14.503
63 1 1.96912 22.7496 -15.4324
64 1 1.31776 22.0759 -15.3587
ITEM: TIMESTEP
1490000
ITEM: NUMBER OF ATOMS
64
ITEM: BOX BOUNDS mm mm mm
-3.2000000000000000e+01 3.2000000000000000e+01
-3.2000000000000000e+01 3.2000000000000000e+01
-3.2000000000000000e+01 3.2000000000000000e+01
ITEM: ATOMS id type x y z
1 1 4.62411 20.3009 -20.172
2 1 5.0733 20.6908 -19.4446
3 1 4.96822 21.3657 -20.0816
4 1 4.18211 21.5238 -20.544
5 1 3.97267 21.7655 -19.5901
6 1 3.76428 22.2454 -18.7681
7 1 4.59996 22.0966 -18.2544
8 1 5.43103 22.5151 -18.3292
9 1 5.82568 23.3976 -18.5024
10 1 6.16464 23.2423 -17.5925
11 1 5.99568 24.1126 -17.3485
12 1 5.32946 23.5557 -16.8999
13 1 5.3424 24.4501 -16.504
14 1 5.99328 24.9404 -16.0423
15 1 6.96242 24.8386 -15.9391
16 1 7.35031 25.5796 -16.3459
17 1 8.1026 25.215 -16.8829
18 1 8.95625 25.1749 -17.2924
19 1 9.78539 25.5269 -17.5216
20 1 10.1586 25.0553 -18.3373
21 1 10.4258 24.7446 -17.4845
22 1 10.9297 24.5171 -16.7679
23 1 10.8251 25.2786 -16.2285
24 1 11.5243 25.8682 -16.029
25 1 12.2089 25.7271 -15.395
26 1 12.7075 24.944 -15.0035
27 1 12.2945 24.1688 -14.6699
28 1 13.1406 23.7752 -14.5652
29 1 13.9569 24.1179 -14.932
30 1 13.4146 23.8545 -15.6161
31 1 12.8268 23.7794 -16.4599
32 1 13.131 23.7483 -17.3103
33 1 12.3627 23.6078 -17.9234
34 1 12.0214 23.9975 -18.6945
35 1 11.4147 23.3157 -18.6086
36 1 10.6177 22.9521 -18.2034
37 1 10.1526 22.8993 -17.3983
38 1 9.61253 22.3674 -16.8395
39 1 9.76847 21.5909 -16.2509
40 1 9.74371 21.1034 -15.4211
41 1 8.93523 21.55 -15.5909
42 1 8.29341 20.9151 -15.4611
43 1 7.6259 20.3911 -15.9145
44 1 6.97976 19.8021 -15.5683
45 1 6.48128 19.7072 -14.8
46 1 6.42627 18.7137 -14.673
47 1 5.75997 18.3708 -15.2067
48 1 6.35088 17.6297 -15.1982
49 1 6.83543 16.8979 -15.4318
50 1 6.65398 16.5999 -14.5371
51 1 6.84306 17.5061 -14.117
52 1 7.00002 17.0882 -13.2761
53 1 7.63057 17.7323 -13.5478
54 1 7.54147 18.573 -13.1883
55 1 6.6193 18.5949 -12.9216
56 1 6.00722 18.7481 -12.2261
57 1 6.62882 18.2449 -11.7646
58 1 6.15168 18.3884 -10.9597
59 1 6.7299 18.5985 -10.2384
60 1 7.26436 17.867 -10.4198
61 1 7.78856 17.123 -10.2519
62 1 7.774 17.1446 -9.31706
63 1 7.1962 16.9332 -8.52134
64 1 6.98307 17.5392 -7.8872
ITEM: TIMESTEP
1500000
ITEM: NUMBER OF ATOMS
64
ITEM: BOX BOUNDS mm mm mm
-3.2000000000000000e+01 3.2000000000000000e+01
-3.2000000000000000e+01 3.2000000000000000e+01
-3.2000000000000000e+01 3.2000000000000000e+01
ITEM: ATOMS id type x y z
1 1 -1.5832 28.6146 -18.4214
2 1 -2.07423 27.8123 -18.5105
3 1 -2.45187 27.5265 -17.7389
4 1 -1.57937 27.1296 -17.8773
5 1 -0.730863 26.9042 -18.1916
6 1 -0.572746 27.7346 -17.8451
7 1 0.0972134 28.1974 -17.2962
8 1 0.550628 27.8049 -16.5193
9 1 0.725242 28.0725 -15.5935
10 1 1.20647 28.5613 -14.9961
11 1 1.25373 28.0779 -14.263
12 1 2.12116 27.8307 -14.5363
13 1 2.81911 27.4044 -14.0509
14 1 3.17253 26.7877 -14.7789
15 1 2.96948 26.0867 -15.4046
16 1 3.73598 25.6964 -15.7687
17 1 4.03884 24.99 -16.3722
18 1 4.31927 25.6655 -17.0282
19 1 3.66538 26.3278 -17.0785
20 1 3.04537 26.7616 -17.6682
21 1 3.05806 27.6327 -17.9766
22 1 3.32234 28.2073 -18.6604
23 1 4.03392 28.2319 -18.0211
24 1 4.52599 28.983 -18.2372
25 1 4.99275 28.9362 -19.0464
26 1 5.40061 28.6301 -19.7971
27 1 6.18442 28.9861 -19.417
28 1 6.4342 28.1552 -19.8388
29 1 7.12012 27.8069 -20.4251
30 1 7.03171 27.278 -19.6512
31 1 7.91249 27.2975 -19.7263
32 1 8.86416 27.4288 -19.6429
33 1 8.73094 26.9341 -18.9027
34 1 8.79648 26.0151 -18.6631
35 1 8.22441 25.7065 -18.0235
36 1 7.75778 24.9284 -18.4042
37 1 7.70627 24.041 -18.6827
38 1 8.07591 23.482 -18.0592
39 1 7.93554 22.743 -17.5861
40 1 8.22118 21.9039 -17.1813
41 1 9.00209 22.1127 -16.7746
42 1 8.77869 21.1759 -16.4948
43 1 8.20214 20.6857 -17.0087
44 1 7.22176 20.6112 -16.9885
45 1 7.01859 19.7388 -16.8255
46 1 7.92008 19.5452 -16.9162
47 1 8.56918 18.9639 -16.4662
48 1 8.2796 18.1413 -16.1488
49 1 7.9186 17.4424 -15.7156
50 1 8.83981 17.3658 -15.5504
51 1 9.43272 18.0689 -15.4903
52 1 10.1205 18.3083 -14.8777
53 1 9.5945 18.7503 -14.2536
54 1 8.91823 18.2778 -13.7471
55 1 8.07075 18.1744 -13.3244
56 1 7.87626 18.7139 -12.5829
57 1 8.69911 18.9287 -12.7804
58 1 8.52199 19.8816 -12.9193
59 1 9.40641 20.1162 -12.9674
60 1 9.9142 20.264 -13.7448
61 1 9.32096 19.8385 -14.3374
62 1 8.6313 19.8958 -14.9559
63 1 8.00162 19.6464 -15.6607
64 1 8.40098 18.9313 -15.2167
ITEM: TIMESTEP
1510000
ITEM: NUMBER OF ATOMS
64
ITEM: BOX BOUNDS mm mm mm
-3.2000000000000000e+01 3.2000000000000000e+01
-3.2000000000000000e+01 3.2000000000000000e+01
-3.2000000000000000e+01 3.2000000000000000e+01
ITEM: ATOMS id type x y z
1 1 2.78828 25.1735 -20.2969
2 1 3.1406 25.7983 -19.6917
3 1 2.89868 26.489 -19.2117
4 1 2.37192 27.1701 -18.7788
5 1 3.14432 27.2163 -18.3324
6 1 3.72593 26.587 -17.9116
7 1 4.51329 26.0604 -17.8009
8 1 4.66697 25.3626 -18.476
9 1 4.98908 24.6438 -17.9395
10 1 4.5788 25.1496 -17.2642
11 1 4.5438 25.2671 -16.3511
12 1 4.44394 25.6839 -15.4601
13 1 3.88594 25.7004 -14.7268
14 1 3.18028 25.8734 -15.3711
15 1 3.08395 25.7095 -16.2515
16 1 3.08976 26.3374 -16.9951
17 1 3.98773 26.4511 -16.7195
18 1 4.72606 26.9202 -16.2443
19 1 5.532 27.3314 -16.366
20 1 5.43099 27.2007 -17.3142
21 1 6.03232 27.3693 -18.0042
22 1 6.93192 27.1441 -18.1825
23 1 7.65749 27.5654 -18.6062
24 1 8.15074 26.7886 -18.8832
25 1 8.91676 27.1166 -18.4316
26 1 9.34983 26.2823 -18.0995
27 1 10.0828 26.939 -18.0622
28 1 10.5272 26.0828 -18.1295
29 1 10.051 25.3116 -18.3659
30 1 9.25813 25.0115 -18.7284
31 1 9.0021 24.7159 -19.619
32 1 9.46027 23.8812 -19.5617
33 1 10.3707 23.8657 -19.5446
34 1 11.2379 23.6551 -19.4493
35 1 12.0131 23.5182 -20.0077
36 1 12.4163 23.6026 -19.1377
37 1 12.0573 22.9853 -18.5536
38 1 11.1448 23.1712 -18.4091
39 1 11.3029 22.2489 -18.2556
40 1 11.2816 22.6611 -17.4374
41 1 10.4945 23.129 -17.4111
42 1 9.86654 23.008 -16.7252
43 1 10.2626 23.2842 -15.894
44 1 10.7173 22.8883 -15.1931
45 1 11.221 22.1421 -15.2106
46 1 10.5305 21.834 -14.6346
47 1 10.1035 21.0525 -14.449
48 1 9.49973 20.8101 -15.0894
49 1 8.91609 20.5715 -14.3738
50 1 8.31366 21.2547 -14.6039
51 1 7.36292 21.3873 -14.6422
52 1 6.53817 21.144 -15.023
53 1 6.66854 20.2191 -14.9757
54 1 6.31949 19.336 -15.1165
55 1 5.66386 19.06 -15.6546
56 1 5.70645 18.7472 -16.5134
57 1 5.08813 18.2475 -15.9856
58 1 4.25778 18.4365 -15.5774
59 1 3.94257 17.6059 -15.2627
60 1 4.31346 16.7671 -15.3519
61 1 5.13401 16.9443 -14.9555
62 1 5.93256 16.4451 -15.0539
63 1 6.058 16.0335 -15.9056
64 1 5.38874 16.3726 -16.6196
ITEM: TIMESTEP
1520000
ITEM: NUMBER OF ATOMS
64
ITEM: BOX BOUNDS mm mm mm
-3.2000000000000000e+01 3.2000000000000000e+01
-3.2000000000000000e+01 3.2000000000000000e+01
-3.2000000000000000e+01 3.2000000000000000e+01
ITEM: ATOMS id type x y z
1 1 1.099 27.2064 -19.0877
2 1 1.59952 27.6917 -18.4263
3 1 2.47204 27.5806 -18.7729
4 1 2.58644 26.7317 -19.1788
5 1 2.68764 25.7968 -18.9953
6 1 2.54496 25.2893 -18.2402
7 1 2.89597 25.7506 -17.4604
8 1 3.71002 25.4971 -17.0893
9 1 4.62367 25.4695 -17.3283
10 1 4.5814 25.466 -16.4113
11 1 5.50291 25.3083 -16.1626
12 1 6.04688 25.9769 -16.5676
13 1 5.72538 25.8722 -17.4892
14 1 6.35786 26.5279 -17.439
15 1 6.99064 27.2612 -17.5282
16 1 7.45136 28.0705 -17.3904
17 1 7.87299 28.782 -16.9284
18 1 8.60118 29.0421 -17.496
19 1 9.52361 29.1313 -17.4505
20 1 9.92563 29.6014 -18.1656
21 1 10.6903 29.1082 -18.3017
22 1 11.432 28.5167 -17.9992
23 1 11.6644 27.6091 -17.8336
24 1 11.5943 26.9361 -18.4489
25 1 10.776 26.8234 -18.8079
26 1 10.4751 26.2618 -19.4582
27 1 11.1143 26.6561 -20.0426
28 1 11.7238 26.3686 -20.6812
29 1 11.3537 25.5491 -20.8842
30 1 11.8354 24.804 -20.5313
31 1 11.9941 23.88 -20.8113
32 1 12.3246 23.3408 -20.0704
33 1 12.0259 22.4846 -19.8517
34 1 12.2601 21.8597 -19.2008
35 1 11.9359 21.0526 -19.4752
36 1 12.4006 20.2267 -19.46
37 1 12.2468 20.69 -20.3239
38 1 12.9951 20.1088 -20.3959
39 1 13.8422 19.8817 -20.5457
40 1 13.3388 19.1835 -20.1106
41 1 13.0895 18.2815 -20.39
42 1 13.6694 17.5109 -20.6168
43 1 14.4483 17.7315 -20.1747
44 1 14.0993 17.8345 -19.2683
45 1 14.4487 17.9049 -18.3979
46 1 14.177 18.3275 -17.6173
47 1 13.645 19.1067 -17.3392
48 1 13.8128 19.3339 -16.457
49 1 13.9301 18.3426 -16.4541
50 1 13.7283 18.1466 -15.5417
51 1 13.6405 18.8205 -14.9154
52 1 12.7631 18.5549 -14.6943
53 1 12.5298 17.8232 -14.212
54 1 12.4247 17.3226 -14.9746
55 1 11.8469 16.7174 -15.4487
56 1 11.3712 16.0931 -14.9421
57 1 10.995 16.9065 -14.633
58 1 11.2159 16.4599 -13.8465
59 1 10.7901 16.2116 -13.0441
60 1 10.1877 15.9046 -12.3064
61 1 10.1797 14.9894 -12.6858
62 1 10.6057 14.6541 -11.9121
63 1 10.7605 14.2342 -11.0809
64 1 11.661 14.1683 -10.6974
ITEM: TIMESTEP
1530000
ITEM: NUMBER OF ATOMS
64
ITEM: BOX BOUNDS mm mm mm
-3.2000000000000000e+01 3.2000000000000000e+01
-3.2000000000000000e+01 3.2000000000000000e+01
-3.2000000000000000e+01 3.2000000000000000e+01
ITEM: ATOMS id type x y z
1 1 -0.190415 30.1584 -15.4402
2 1 -0.199555 30.0088 -16.3613
3 1 -0.172217 30.2217 -17.2752
4 1 0.561757 29.6234 -17.0912
5 1 0.14068 28.8465 -16.7851
6 1 0.0834845 28.3715 -17.5812
7 1 -0.418801 28.2853 -18.3899
8 1 0.0308172 28.109 -19.1902
9 1 0.262641 27.2706 -19.5427
10 1 0.637566 26.4212 -19.6938
11 1 1.39727 25.9015 -19.6422
12 1 2.21813 25.6014 -19.8757
13 1 3.01853 25.8789 -19.5481
14 1 3.78351 25.6977 -20.1174
15 1 4.76084 25.8205 -20.0872
16 1 5.64279 25.5309 -19.8772
17 1 6.22123 25.7363 -19.1592
18 1 7.12519 25.7939 -18.9307
19 1 8.03597 25.614 -19.133
20 1 8.28481 25.0514 -18.4673
21 1 8.244 24.6281 -17.6297
22 1 8.31978 23.7907 -17.2709
23 1 8.60387 23.4422 -18.0396
24 1 9.40657 23.1251 -17.5611
25 1 9.70569 22.5872 -16.8348
26 1 10.357 21.9089 -16.8389
27 1 10.9872 21.4747 -17.356
28 1 11.8723 21.2679 -17.5537
29 1 12.3662 22.071 -17.7081
30 1 12.9881 21.9051 -18.4647
31 1 13.143 22.6683 -17.9172
32 1 14.0948 22.7028 -17.8987
33 1 14.931 22.4254 -18.1098
34 1 15.2208 21.6905 -17.5955
35 1 14.9045 20.9162 -17.1815
36 1 15.4638 20.3887 -16.5928
37 1 15.7499 19.4652 -16.5973
38 1 14.8721 19.4603 -16.2913
39 1 14.4801 18.8936 -15.5865
40 1 15.1432 18.2534 -15.8144
41 1 14.642 18.1399 -16.6021
42 1 14.1741 18.6502 -17.2785
43 1 15.0664 18.5185 -17.4831
44 1 15.0892 17.5889 -17.7452
45 1 14.7054 16.7954 -18.1063
46 1 14.0579 16.1718 -18.016
47 1 13.7545 15.6394 -17.2639
48 1 13.2273 15.0536 -17.7062
49 1 12.3668 14.8222 -18.0972
50 1 12.2407 14.1481 -18.7401
51 1 12.4633 13.4161 -19.2016
52 1 12.8111 13.1886 -18.3763
53 1 13.3015 12.5978 -17.7936
54 1 13.0461 12.8665 -16.958
55 1 13.6042 12.8622 -16.188
56 1 14.4049 12.9009 -15.6659
57 1 15.2901 13.0513 -15.9221
58 1 15.2837 12.4907 -15.1252
59 1 15.2825 11.5855 -15.2487
60 1 14.9366 11.3652 -14.446
61 1 14.8071 10.7126 -13.7406
62 1 14.7516 10.0427 -13.1425
63 1 14.6686 10.4996 -12.2668
64 1 14.5922 11.4564 -12.3929
ITEM: TIMESTEP
1540000
ITEM: NUMBER OF ATOMS
64
ITEM: BOX BOUNDS mm mm mm
-3.2000000000000000e+01 3.2000000000000000e+01
-3.2000000000000000e+01 3.2000000000000000e+01
-3.2000000000000000e+01 3.2000000000000000e+01
ITEM: ATOMS id type x y z
1 1 12.169 27.8819 -18.7786
2 1 11.4511 28.3578 -19.1923
3 1 10.786 28.4369 -18.6118
4 1 11.2993 27.8275 -18.1594
5 1 11.4759 28.1992 -17.3378
6 1 11.5059 29.1404 -17.354
7 1 11.4179 29.4621 -18.1961
8 1 10.6309 29.7247 -17.8035
9 1 10.2483 29.0521 -17.3039
10 1 9.40114 29.1024 -16.7707
11 1 8.74416 28.5966 -16.3185
12 1 8.57879 28.23 -15.4596
13 1 9.04135 27.8954 -14.7133
14 1 9.28441 27.0063 -14.7597
15 1 8.7896 26.7851 -15.6395
16 1 8.21243 26.092 -15.99
17 1 7.90197 25.1967 -15.8894
18 1 8.75883 25.1934 -16.1416
19 1 9.02456 24.2655 -16.287
20 1 9.29824 24.2757 -17.1835
21 1 9.53003 23.45 -16.749
22 1 9.89533 22.5585 -16.7223
23 1 9.71997 22.8209 -15.8431
24 1 9.36544 23.1786 -14.9959
25 1 9.41295 22.2766 -14.6733
26 1 9.31275 21.6779 -15.4679
27 1 10.2042 21.397 -15.7066
28 1 10.8538 22.0294 -15.6036
29 1 10.7921 21.4184 -14.8553
30 1 10.4309 20.5987 -15.0379
31 1 10.7337 19.7172 -14.9288
32 1 10.3441 19.0035 -14.4302
33 1 10.7418 18.6375 -13.6713
34 1 10.4612 17.7672 -13.5564
35 1 9.88207 17.9533 -14.2757
36 1 9.83155 18.1947 -15.1601
37 1 10.1546 17.7588 -15.9004
38 1 11.0696 17.6091 -15.8877
39 1 11.5709 17.0105 -15.4105
40 1 11.2222 16.13 -15.4439
41 1 11.571 15.7641 -16.2675
42 1 12.4414 15.3957 -16.5986
43 1 12.9859 15.2277 -15.8792
44 1 13.0405 14.7724 -15.0534
45 1 13.0248 13.8439 -15.3004
46 1 12.9396 12.9363 -14.885
47 1 13.2826 12.1733 -14.3865
48 1 14.0342 11.6333 -14.3843
49 1 14.7454 11.849 -13.8657
50 1 14.9413 11.5347 -14.7558
51 1 15.4964 12.2598 -14.5852
52 1 16.1842 12.1145 -13.9832
53 1 17.1042 12.0877 -14.2611
54 1 17.4271 13.0171 -14.3973
55 1 17.1704 13.8147 -13.9632
56 1 17.1339 14.4849 -14.5944
57 1 17.5237 14.9148 -15.3673
58 1 16.6181 14.8801 -15.6389
59 1 16.4589 15.4745 -14.8624
60 1 15.7264 16.0277 -14.6554
61 1 15.2933 16.6891 -14.0604
62 1 14.3835 16.7743 -13.7688
63 1 13.9419 17.5147 -14.1458
64 1 13.129 17.6659 -13.7772
ITEM: TIMESTEP
1550000
ITEM: NUMBER OF ATOMS
64
ITEM: BOX BOUNDS mm mm mm
-3.2000000000000000e+01 3.2000000000000000e+01
-3.2000000000000000e+01 3.2000000000000000e+01
-3.2000000000000000e+01 3.2000000000000000e+01
ITEM: ATOMS id type x y z
1 1 18.71 26.3244 -11.2577
2 1 19.013 26.8122 -11.9799
3 1 18.3184 26.8507 -12.6398
4 1 17.8391 27.1293 -13.4439
5 1 18.2544 28.0045 -13.3928
6 1 17.7364 28.546 -12.7982
7 1 16.9558 29.0626 -12.8809
8 1 16.6794 28.2262 -13.2733
9 1 16.5291 27.5082 -13.8357
10 1 16.3195 26.6753 -14.3034
11 1 15.43 27.0326 -14.3006
12 1 14.6382 26.7863 -14.8242
13 1 13.7238 26.5467 -15.0109
14 1 14.0706 25.7587 -14.6447
15 1 14.7838 25.2852 -14.1771
16 1 14.4027 24.6489 -13.6223
17 1 14.2533 25.0148 -12.7559
18 1 13.7376 25.1035 -11.9783
19 1 13.6325 24.1376 -12.3044
20 1 12.6905 23.9353 -12.6227
21 1 12.1891 23.1212 -12.8191
22 1 13.0206 22.7167 -12.9162
23 1 13.0209 22.0172 -13.6062
24 1 12.5924 21.6945 -14.3406
25 1 12.5142 21.0007 -13.7198
26 1 12.2766 20.4916 -14.4577
27 1 11.9803 20.1437 -15.2408
28 1 12.3432 20.1129 -16.1165
29 1 13.0015 19.5517 -15.941
30 1 13.5089 18.8697 -15.5595
31 1 13.0886 18.2924 -16.1427
32 1 13.0843 17.3708 -16.1334
33 1 12.6403 16.5747 -15.8651
34 1 11.9858 16.9965 -16.4126
35 1 12.1241 17.1337 -17.3297
36 1 12.6165 16.4799 -17.7289
37 1 12.6703 15.6641 -18.2401
38 1 12.7178 14.7084 -18.4278
39 1 13.3323 14.4179 -19.0173
40 1 14.0318 13.6909 -19.15
41 1 14.4725 13.9499 -18.3635
42 1 14.749 14.032 -17.4246
43 1 15.6825 13.9389 -17.4481
44 1 16.1157 14.6816 -17.1852
45 1 17.0189 14.7701 -16.8135
46 1 16.3725 15.005 -16.1273
47 1 15.4677 14.7706 -16.1136
48 1 14.6153 14.6669 -16.5388
49 1 14.1441 14.5336 -15.7652
50 1 13.7902 14.2025 -14.9961
51 1 13.1344 14.4032 -14.3548
52 1 13.0913 14.85 -13.4937
53 1 12.9714 15.7998 -13.3472
54 1 13.2049 16.6541 -12.9514
55 1 13.9991 16.8865 -13.3244
56 1 13.7693 17.0448 -14.3012
57 1 12.962 17.5281 -14.0821
58 1 12.7725 18.2334 -13.4654
59 1 12.4261 18.6628 -12.6623
60 1 13.0384 19.3035 -12.4675
61 1 13.0837 19.8932 -11.6621
62 1 13.1443 20.6298 -12.2687
63 1 13.9532 20.6217 -12.7618
64 1 13.8735 20.6524 -13.7077
ITEM: TIMESTEP
1560000
ITEM: NUMBER OF ATOMS
64
ITEM: BOX BOUNDS mm mm mm
-3.2000000000000000e+01 3.2000000000000000e+01
-3.2000000000000000e+01 3.2000000000000000e+01
-3.2000000000000000e+01 3.2000000000000000e+01
ITEM: ATOMS id type x y z
1 1 18.3622 23.0471 -12.3714
2 1 17.7907 23.751 -12.5678
3 1 17.822 24.3684 -13.2436
4 1 17.2503 24.7301 -12.6072
5 1 17.1477 25.2209 -13.4412
6 1 16.6396 25.0522 -14.2019
7 1 15.9952 25.1258 -14.8318
8 1 15.2155 25.5316 -14.6115
9 1 15.2886 26.3333 -15.1233
10 1 15.563 27.2554 -15.1122
11 1 14.645 27.5507 -15.1055
12 1 14.31 27.6918 -14.2
13 1 13.7885 27.2216 -13.6392
14 1 13.7774 26.4017 -14.1241
15 1 13.9704 25.7767 -13.467
16 1 14.2675 24.9541 -13.8345
17 1 13.789 24.2163 -14.2656
18 1 13.9596 23.9752 -15.1675
19 1 13.7506 24.4256 -15.985
20 1 14.4622 24.2907 -16.6431
21 1 14.1515 24.1372 -17.5283
22 1 14.2283 23.3897 -18.0472
23 1 13.4762 22.8486 -18.1787
24 1 12.7847 22.4581 -18.7208
25 1 12.3085 22.8498 -17.9378
26 1 11.9086 22.28 -17.3401
27 1 11.8414 21.3125 -17.3229
28 1 12.0612 20.4379 -17.419
29 1 12.893 20.0735 -17.8671
30 1 12.3462 19.3188 -18.0728
31 1 12.5755 18.4306 -17.9345
32 1 13.1095 17.8123 -17.4055
33 1 13.8291 17.2081 -17.5143
34 1 14.6484 17.5389 -17.521
35 1 14.9601 16.657 -17.6747
36 1 15.1685 16.4844 -18.6371
37 1 15.0763 15.6614 -18.1366
38 1 15.5835 14.9595 -17.8269
39 1 15.8377 14.415 -17.1045
40 1 16.3548 13.849 -16.569
41 1 17.2003 14.0935 -16.6035
42 1 17.1283 14.9697 -16.945
43 1 17.0729 15.8601 -16.648
44 1 17.9207 16.0689 -17.0273
45 1 18.2312 16.7224 -17.6993
46 1 18.043 17.2918 -18.4136
47 1 18.6825 17.6468 -17.808
48 1 17.9497 18.2449 -17.6137
49 1 17.1291 17.7231 -17.4988
50 1 16.4358 18.2538 -17.7046
51 1 15.8284 18.3917 -16.9963
52 1 16.1535 18.1429 -16.14
53 1 16.5296 18.948 -15.8195
54 1 17.2082 19.5386 -16.0574
55 1 17.2235 20.258 -15.4442
56 1 16.3384 20.3548 -15.2328
57 1 15.8378 19.8824 -15.8801
58 1 15.3938 19.0758 -15.6095
59 1 14.8865 19.2035 -14.8366
60 1 15.1457 18.4086 -14.3401
61 1 14.8448 18.613 -13.4533
62 1 15.7855 18.8175 -13.6333
63 1 16.341 19.619 -13.413
64 1 17.0788 19.2657 -13.8426
ITEM: TIMESTEP
1570000
ITEM: NUMBER OF ATOMS
64
ITEM: BOX BOUNDS mm mm mm
-3.2000000000000000e+01 3.2000000000000000e+01
-3.2000000000000000e+01 3.2000000000000000e+01
-3.2000000000000000e+01 3.2000000000000000e+01
ITEM: ATOMS id type x y z
1 1 6.91241 20.9857 -20.7812
2 1 6.95494 21.225 -21.7024
3 1 7.79993 21.4798 -22.0043
4 1 7.62738 22.4258 -21.7163
5 1 8.27707 23.1633 -21.5441
6 1 8.80579 22.9267 -20.7626
7 1 9.43706 22.382 -20.3241
8 1 10.2302 21.879 -20.2926
9 1 9.57743 21.2194 -20.0202
10 1 9.65438 21.6976 -19.136
11 1 9.46831 22.3141 -18.4069
12 1 8.71995 22.8154 -18.1152
13 1 8.01438 22.3852 -17.5871
14 1 7.27857 21.8082 -17.2609
15 1 6.95927 20.9944 -17.0468
16 1 6.66485 20.2033 -16.6459
17 1 5.83954 19.8582 -16.7814
18 1 5.26005 19.7021 -16.0532
19 1 5.21067 18.7789 -16.3024
20 1 5.52807 18.068 -16.7462
21 1 6.45517 18.0396 -16.5567
22 1 6.27421 17.7615 -15.6437
23 1 6.68327 17.0374 -15.2062
24 1 6.43932 16.1505 -15.4263
25 1 7.15749 16.2438 -16.0289
26 1 7.49491 16.7387 -16.8137
27 1 7.97662 16.3494 -17.4672
28 1 7.49952 16.0556 -18.2943
29 1 8.34482 15.6088 -18.1369
30 1 9.00757 14.9295 -17.8726
31 1 9.66777 15.557 -18.0386
32 1 10.4263 15.7408 -17.4873
33 1 10.8829 15.9789 -16.7305
34 1 11.0121 16.5025 -15.9632
35 1 11.7963 16.2386 -15.6402
36 1 12.7041 16.0827 -15.2932
37 1 13.2852 16.5341 -14.6626
38 1 13.0661 15.644 -14.5004
39 1 13.7457 14.968 -14.4638
40 1 12.9488 14.6002 -14.5834
41 1 13.5641 13.9259 -14.845
42 1 14.4573 14.2882 -14.672
43 1 14.9091 14.3642 -13.854
44 1 15.6921 14.5482 -14.3656
45 1 15.5516 14.5826 -15.3084
46 1 16.0867 14.5458 -16.0468
47 1 15.8098 15.0747 -16.7672
48 1 16.2963 15.646 -17.2778
49 1 16.854 16.0031 -17.9862
50 1 17.3121 15.3654 -18.4997
51 1 17.6905 16.29 -18.5084
52 1 17.4879 16.8334 -17.7791
53 1 16.7279 16.9471 -17.1047
54 1 16.8748 17.0019 -16.1843
55 1 16.359 16.9213 -15.3537
56 1 16.4963 16.7118 -14.4622
57 1 15.6976 16.1216 -14.4459
58 1 15.0463 16.7139 -14.02
59 1 15.2043 16.3212 -13.2282
60 1 15.1534 15.587 -12.6016
61 1 14.6779 14.7865 -12.4644
62 1 13.9965 14.0905 -12.4398
63 1 14.6029 13.3941 -12.253
64 1 14.4347 13.4204 -11.3008
ITEM: TIMESTEP
1580000
ITEM: NUMBER OF ATOMS
64
ITEM: BOX BOUNDS mm mm mm
-3.2000000000000000e+01 3.2000000000000000e+01