ITEM: TIMESTEP
290000
ITEM: NUMBER OF ATOMS
64
ITEM: BOX BOUNDS mm mm mm
-3.2000000000000000e+01 3.2000000000000000e+01
-3.2000000000000000e+01 3.2000000000000000e+01
-3.2000000000000000e+01 3.2000000000000000e+01
ITEM: ATOMS id type x y z
1 1 4.75092 13.3513 -14.7729
2 1 4.36309 14.1875 -14.8729
3 1 4.77153 14.8577 -15.3048
4 1 3.80997 15.1461 -15.5685
5 1 3.0287 14.5998 -15.6727
6 1 3.07549 13.8827 -15.0221
7 1 2.43185 13.6798 -14.3995
8 1 2.27514 13.0675 -13.6808
9 1 2.61746 13.1425 -12.8448
10 1 3.24688 12.5737 -13.2595
11 1 3.10895 11.714 -12.8978
12 1 3.11062 11.4026 -11.9458
13 1 2.78799 12.0324 -11.3003
14 1 3.12342 12.878 -11.3153
15 1 2.41452 12.9996 -10.6905
16 1 3.1567 13.4789 -10.5164
17 1 2.64062 14.2226 -10.2726
18 1 3.32303 14.5117 -9.76846
19 1 3.47371 13.734 -9.30773
20 1 3.60293 12.9709 -8.80594
21 1 2.99483 13.0449 -8.11811
22 1 2.39295 12.4807 -7.56864
23 1 2.96229 11.7933 -7.17425
24 1 2.39558 11.0045 -7.18506
25 1 3.12739 10.6641 -6.73811
26 1 3.59028 10.7318 -5.93937
27 1 3.5568 9.98041 -5.40572
28 1 3.08279 9.20304 -5.66273
29 1 2.3727 9.69637 -6.05922
30 1 1.74545 9.04275 -6.32443
31 1 1.54159 8.1786 -5.98788
32 1 1.94353 8.27331 -5.11685
33 1 2.04037 7.77194 -4.34826
34 1 2.34832 7.60368 -3.48652
35 1 1.442 7.62464 -3.22981
36 1 1.80073 7.50071 -2.35117
37 1 1.77139 7.22566 -1.40281
38 1 2.63473 7.54691 -1.31064
39 1 3.00814 8.28075 -0.795619
40 1 3.87053 7.98857 -0.427857
41 1 3.99948 7.12112 -0.0589307
42 1 4.8065 6.99636 0.355847
43 1 5.09112 6.30768 0.923705
44 1 4.94554 5.76686 1.71296
45 1 5.01385 6.36167 2.43166
46 1 5.89973 6.75878 2.63268
47 1 6.56767 6.13801 2.88101
48 1 7.10217 5.56376 2.37291
49 1 6.57199 4.86111 2.09237
50 1 6.19448 4.48267 1.35462
51 1 6.67503 3.74965 1.04431
52 1 6.98266 3.22801 0.309156
53 1 6.90545 2.31267 0.150054
54 1 7.36824 1.4827 0.199587
55 1 7.22464 0.858012 -0.542181
56 1 7.56116 -0.0128429 -0.867952
57 1 6.90817 -0.374943 -0.290102
58 1 6.13709 -0.864867 -0.239754
59 1 5.58901 -0.537913 0.44757
60 1 6.41754 -0.852024 0.794658
61 1 7.25846 -1.27629 0.899395
62 1 8.16916 -1.39826 1.24355
63 1 7.91168 -1.07284 2.09079
64 1 7.69888 -0.897313 2.97484
ITEM: TIMESTEP
300000
ITEM: NUMBER OF ATOMS
64
ITEM: BOX BOUNDS mm mm mm
-3.2000000000000000e+01 3.2000000000000000e+01
-3.2000000000000000e+01 3.2000000000000000e+01
-3.2000000000000000e+01 3.2000000000000000e+01
ITEM: ATOMS id type x y z
1 1 0.88597 15.305 -14.3911
2 1 0.348604 15.7633 -14.9847
3 1 -0.406928 16.1659 -15.2938
4 1 -1.30218 15.9441 -15.1919
5 1 -1.91448 15.1636 -15.3661
6 1 -1.47376 15.3557 -16.1418
7 1 -1.03614 14.6759 -16.582
8 1 -0.283577 14.242 -16.2233
9 1 -0.68456 13.3332 -16.311
10 1 -0.751989 13.1275 -15.3941
11 1 -0.395192 12.8707 -14.6115
12 1 -0.324713 12.5445 -13.7107
13 1 -0.253754 12.1558 -12.802
14 1 0.645563 11.9828 -12.4336
15 1 0.522037 11.883 -11.5313
16 1 0.664292 11.3157 -10.7506
17 1 0.335766 11.9796 -10.2314
18 1 0.260277 11.2233 -9.52191
19 1 -0.116937 10.9162 -8.76802
20 1 -0.901004 10.5171 -8.40303
21 1 -0.914554 9.61428 -8.15292
22 1 -0.80083 8.70188 -8.37269
23 1 -0.742152 7.81463 -8.03112
24 1 -1.32902 7.21071 -8.61842
25 1 -1.23162 6.60842 -7.79257
26 1 -2.15647 6.40995 -7.61557
27 1 -2.18644 5.88034 -6.8109
28 1 -1.86069 5.09985 -7.18871
29 1 -1.47824 5.357 -7.98987
30 1 -0.678333 5.45647 -8.48911
31 1 -0.256985 4.73531 -8.1258
32 1 0.458421 5.00832 -7.57735
33 1 0.998219 4.9871 -6.82828
34 1 0.490193 5.40427 -6.17061
35 1 1.32289 5.49876 -5.62478
36 1 0.9478 4.68864 -5.38103
37 1 1.67381 4.45362 -4.90785
38 1 1.96098 4.04024 -5.68672
39 1 2.04599 3.3858 -5.04684
40 1 2.86354 3.44555 -4.58073
41 1 3.10061 3.88136 -3.71569
42 1 3.92359 3.45493 -3.87558
43 1 4.61277 2.81078 -4.0808
44 1 5.52849 3.01058 -4.22298
45 1 5.44781 3.80034 -4.73439
46 1 5.50365 4.6101 -5.22833
47 1 5.30261 5.51042 -5.13252
48 1 5.36811 6.27134 -5.72192
49 1 6.08149 6.77804 -5.34001
50 1 6.80916 7.22269 -4.98949
51 1 7.03 6.85075 -5.82361
52 1 7.63711 7.13993 -6.42536
53 1 8.08627 7.8995 -6.93758
54 1 8.97345 7.55109 -6.73593
55 1 9.73553 7.69661 -6.22479
56 1 9.2194 7.52574 -5.47478
57 1 9.45665 7.01554 -4.78486
58 1 10.081 6.40981 -4.39572
59 1 9.7437 6.70102 -3.51296
60 1 9.58328 6.26675 -2.69448
61 1 9.8178 5.33026 -2.75028
62 1 9.40244 4.61813 -3.17096
63 1 10.2816 4.28365 -2.96869
64 1 10.8302 4.89904 -3.45046
ITEM: TIMESTEP
310000
ITEM: NUMBER OF ATOMS
64
ITEM: BOX BOUNDS mm mm mm
-3.2000000000000000e+01 3.2000000000000000e+01
-3.2000000000000000e+01 3.2000000000000000e+01
-3.2000000000000000e+01 3.2000000000000000e+01
ITEM: ATOMS id type x y z
1 1 -1.59393 14.0502 -10.7303
2 1 -1.33202 13.2453 -11.2461
3 1 -1.38882 12.3445 -10.9316
4 1 -2.22392 12.495 -10.5594
5 1 -3.03257 12.9757 -10.5569
6 1 -3.21155 13.8167 -10.2161
7 1 -3.56278 13.6625 -9.29875
8 1 -3.30337 13.1194 -8.48238
9 1 -4.12244 13.4911 -8.38542
10 1 -4.65946 13.9866 -7.80127
11 1 -5.41579 13.6483 -7.36529
12 1 -5.61552 12.9449 -6.76729
13 1 -5.01134 12.6494 -7.49997
14 1 -4.79885 11.8072 -7.92683
15 1 -4.09106 11.3553 -7.50982
16 1 -3.25651 11.2633 -7.01274
17 1 -3.19066 10.8559 -7.87708
18 1 -2.70237 10.2023 -8.27156
19 1 -2.22812 10.0684 -9.10419
20 1 -2.99511 10.5184 -9.42649
21 1 -3.8869 10.6198 -9.09018
22 1 -4.22632 9.94388 -8.54877
23 1 -4.55569 9.29963 -7.97501
24 1 -4.64953 8.88885 -7.09999
25 1 -4.934 8.1093 -6.67906
26 1 -4.07645 7.75991 -6.73502
27 1 -3.17226 7.33381 -6.5887
28 1 -2.23524 7.05648 -6.46979
29 1 -1.92596 7.83854 -7.00066
30 1 -1.30778 8.27259 -7.56224
31 1 -0.622199 7.6104 -7.44427
32 1 0.0452784 7.37651 -8.14398
33 1 -0.292809 6.99069 -8.92528
34 1 -0.429496 6.12671 -8.68329
35 1 0.634407 5.93658 -8.47769
36 1 1.32734 5.80536 -9.14643
37 1 1.05642 6.58117 -9.57443
38 1 0.929794 7.07228 -10.3344
39 1 1.84105 6.93729 -10.4554
40 1 2.64049 6.88813 -9.95689
41 1 3.42861 7.399 -9.6325
42 1 4.04756 6.66779 -9.4536
43 1 4.43354 6.61114 -8.6017
44 1 4.31593 7.53147 -8.68769
45 1 4.53096 8.37842 -8.31615
46 1 5.1155 7.98075 -7.67304
47 1 5.41723 8.90624 -7.78181
48 1 5.46216 9.58067 -7.15488
49 1 5.06192 9.70443 -6.32305
50 1 5.10994 9.36791 -5.43568
51 1 6.02205 9.24871 -5.68039
52 1 6.17983 8.54699 -6.2856
53 1 5.78284 7.75268 -6.00792
54 1 5.22899 8.18477 -6.59623
55 1 4.73025 8.11954 -5.78787
56 1 4.38938 7.4012 -5.37475
57 1 3.92535 6.6487 -5.10197
58 1 4.20341 6.06652 -4.37599
59 1 4.99444 6.00216 -3.8261
60 1 5.2542 6.55876 -3.14718
61 1 4.58138 6.58868 -2.50105
62 1 3.63791 6.47853 -2.5859
63 1 3.0853 6.65595 -1.82669
64 1 2.7034 5.88221 -2.22314
ITEM: TIMESTEP
320000
ITEM: NUMBER OF ATOMS
64
ITEM: BOX BOUNDS mm mm mm
-3.2000000000000000e+01 3.2000000000000000e+01
-3.2000000000000000e+01 3.2000000000000000e+01
-3.2000000000000000e+01 3.2000000000000000e+01
ITEM: ATOMS id type x y z
1 1 -4.18271 15.6216 -6.90902
2 1 -4.0724 15.2544 -7.75488
3 1 -4.66799 15.1009 -8.49656
4 1 -5.49284 14.7707 -8.32934
5 1 -5.92439 14.3986 -7.61129
6 1 -5.48973 15.1606 -7.32772
7 1 -5.65666 14.6702 -6.57209
8 1 -4.99266 14.6239 -5.9324
9 1 -4.80564 14.1429 -6.72234
10 1 -5.14604 13.2619 -6.75503
11 1 -4.42005 12.6448 -6.70887
12 1 -5.16685 12.2105 -6.27553
13 1 -5.20381 11.6885 -7.04797
14 1 -4.70302 11.859 -7.80891
15 1 -4.41475 11.06 -8.0736
16 1 -3.54997 11.024 -8.44635
17 1 -2.77947 11.6346 -8.24752
18 1 -1.97654 11.4879 -7.91109
19 1 -1.80033 12.3172 -8.36112
20 1 -1.07453 12.7088 -8.84396
21 1 -0.441924 12.6249 -8.18465
22 1 -0.390088 12.4494 -7.25453
23 1 -0.725635 12.6661 -6.35617
24 1 -0.138331 13.3477 -6.05674
25 1 0.516102 13.6047 -6.68696
26 1 0.986057 13.2407 -5.92545
27 1 1.18935 12.9329 -5.03816
28 1 2.06317 12.7724 -5.3623
29 1 2.85736 12.9344 -4.85584
30 1 2.80106 12.332 -4.10292
31 1 2.4088 11.7261 -4.70894
32 1 2.32861 10.8094 -4.97048
33 1 1.96404 10.3464 -5.73586
34 1 1.30912 10.3091 -6.38984
35 1 1.90246 10.7694 -6.94751
36 1 2.24535 10.1756 -7.58788
37 1 2.90659 10.5466 -8.18557
38 1 3.41506 11.3476 -7.85582
39 1 4.07397 10.5856 -7.84048
40 1 3.64947 9.75245 -7.93984
41 1 4.21116 9.45496 -7.2086
42 1 4.89272 9.9939 -7.52284
43 1 5.82906 9.86703 -7.74611
44 1 6.19719 9.27806 -7.13935
45 1 6.97785 9.36494 -6.62372
46 1 6.82235 9.32361 -5.67901
47 1 5.93865 9.21898 -5.38128
48 1 5.54954 9.1018 -4.50157
49 1 5.86183 8.15763 -4.68134
50 1 5.45989 7.47934 -4.16323
51 1 4.72153 7.07391 -3.76884
52 1 4.21237 6.28211 -3.62212
53 1 3.88729 6.76738 -2.94671
54 1 3.62144 7.38272 -3.67205
55 1 2.75772 7.47551 -3.44128
56 1 2.02857 6.90173 -3.77227
57 1 1.26646 6.93416 -3.24068
58 1 1.74282 7.25025 -2.4826
59 1 1.51707 6.31976 -2.39449
60 1 1.5607 5.56685 -1.77971
61 1 1.10328 4.97124 -1.15912
62 1 0.95796 4.26091 -1.79604
63 1 1.57928 3.52677 -1.70048
64 1 2.50356 3.62172 -1.8726
ITEM: TIMESTEP
330000
ITEM: NUMBER OF ATOMS
64
ITEM: BOX BOUNDS mm mm mm
-3.2000000000000000e+01 3.2000000000000000e+01
-3.2000000000000000e+01 3.2000000000000000e+01
-3.2000000000000000e+01 3.2000000000000000e+01
ITEM: ATOMS id type x y z
1 1 2.52952 10.9598 -1.3079
2 1 1.99339 11.214 -2.0461
3 1 1.32453 11.8508 -2.1705
4 1 1.71608 12.3247 -1.48545
5 1 1.00249 12.9392 -1.52873
6 1 1.67992 13.5896 -1.76085
7 1 2.60669 13.9546 -1.74061
8 1 2.91703 14.0527 -0.802969
9 1 3.09848 14.6216 -0.0797467
10 1 2.35021 15.1535 -0.0824953
11 1 2.73863 15.164 -0.96813
12 1 2.73959 15.3776 -1.87588
13 1 2.28939 15.8876 -2.47307
14 1 2.65295 15.8397 -3.38374
15 1 2.92379 15.6988 -4.28199
16 1 2.05723 15.9722 -4.52025
17 1 1.2353 16.4099 -4.47995
18 1 0.337761 16.6702 -4.51867
19 1 -0.17212 15.8542 -4.31375
20 1 0.504225 15.424 -4.91482
21 1 0.280904 14.5062 -4.6805
22 1 0.546211 13.8439 -5.3269
23 1 1.44441 13.6628 -5.32419
24 1 0.994942 13.7672 -6.21716
25 1 0.591887 13.5593 -7.02493
26 1 0.868984 13.4819 -7.90585
27 1 0.550833 12.7224 -8.46003
28 1 1.21125 12.9117 -9.07296
29 1 1.94653 12.5547 -9.51906
30 1 2.21001 11.7272 -9.15348
31 1 1.9199 11.8093 -8.27081
32 1 1.9605 10.9136 -7.8974
33 1 2.52497 10.6182 -7.20623
34 1 3.3423 10.8263 -6.87208
35 1 4.08875 11.0694 -7.46692
36 1 4.29057 10.2037 -7.31909
37 1 5.20011 10.4196 -6.9984
38 1 5.68316 11.2107 -6.8197
39 1 6.14593 11.9685 -6.54741
40 1 6.99231 12.0923 -6.1132
41 1 7.43762 11.2654 -6.15192
42 1 7.67146 10.374 -5.90499
43 1 7.67128 9.45039 -6.05013
44 1 8.30789 8.9432 -6.52428
45 1 8.7309 8.08412 -6.76261
46 1 9.20038 8.00582 -5.94448
47 1 9.74504 8.17625 -6.69963
48 1 9.82333 7.64024 -7.51129
49 1 8.97651 7.55933 -7.91882
50 1 9.02143 6.85807 -8.50702
51 1 8.56955 6.03066 -8.28325
52 1 7.73568 5.58475 -8.26796
53 1 7.89987 4.65636 -8.18443
54 1 7.30076 4.04897 -8.51656
55 1 7.22166 3.36945 -7.88747
56 1 6.84613 2.59667 -7.5271
57 1 7.46667 2.30788 -6.91584
58 1 7.47937 1.58974 -6.34995
59 1 7.8646 0.749697 -6.16017
60 1 8.23098 1.39577 -5.63243
61 1 8.77352 2.17415 -5.65746
62 1 9.49653 2.61755 -6.10435
63 1 9.17286 3.16144 -6.8174
64 1 9.99379 3.6522 -6.92649
ITEM: TIMESTEP
340000
ITEM: NUMBER OF ATOMS
64
ITEM: BOX BOUNDS mm mm mm
-3.2000000000000000e+01 3.2000000000000000e+01
-3.2000000000000000e+01 3.2000000000000000e+01
-3.2000000000000000e+01 3.2000000000000000e+01
ITEM: ATOMS id type x y z
1 1 9.57535 11.7005 0.210726
2 1 9.59197 12.4961 0.747446
3 1 8.84075 12.8893 0.431687
4 1 8.61163 12.7658 1.31899
5 1 8.57556 13.7085 1.20656
6 1 8.43578 14.6144 1.38549
7 1 8.63757 15.4385 0.933422
8 1 8.24096 16.2639 0.681226
9 1 8.37058 16.9105 1.38615
10 1 8.95987 17.1684 0.717775
11 1 9.41729 17.0112 -0.0993109
12 1 9.10219 16.4815 -0.797405
13 1 8.21613 16.6766 -1.07025
14 1 7.44794 16.2117 -1.30612
15 1 6.55495 16.0488 -0.997043
16 1 6.01256 16.4267 -0.315022
17 1 6.31185 15.5692 -0.068463
18 1 5.65456 15.1754 0.383546
19 1 4.80309 14.8044 0.41249
20 1 4.31964 14.0867 0.191582
21 1 3.68368 13.8978 -0.507469
22 1 3.58214 12.994 -0.868555
23 1 3.72534 12.8914 -1.7826
24 1 3.84394 13.4444 -2.52957
25 1 3.25491 14.1934 -2.24928
26 1 3.01921 13.851 -3.07298
27 1 3.17884 14.5729 -3.58403
28 1 3.57232 13.932 -4.20945
29 1 3.09862 13.8367 -4.98068
30 1 2.35375 13.9364 -5.58744
31 1 2.03071 13.7714 -4.72211
32 1 1.33222 13.8667 -4.13729
33 1 0.758434 13.5328 -4.841
34 1 0.552458 13.0497 -5.62935
35 1 0.63097 13.7684 -6.23916
36 1 0.151451 13.2251 -6.90695
37 1 -0.245247 12.4587 -7.09471
38 1 0.239643 11.5544 -6.99264
39 1 0.923373 11.0425 -6.59435
40 1 0.938603 10.0972 -6.53733
41 1 1.21873 9.87959 -7.45966
42 1 0.645535 9.39595 -7.99091
43 1 0.923181 8.72873 -8.5592
44 1 1.80386 8.33374 -8.75457
45 1 2.47457 8.36695 -9.38764
46 1 1.93757 7.65971 -9.89511
47 1 1.68836 7.14233 -10.6255
48 1 1.53269 6.41368 -11.2334
49 1 2.44449 6.46592 -11.1173
50 1 2.9063 6.23288 -10.3364
51 1 3.75803 6.55064 -10.2853
52 1 4.54633 5.96737 -10.5585
53 1 4.25164 5.36379 -9.91237
54 1 3.75002 5.57526 -9.16019
55 1 3.15171 5.2379 -8.50429
56 1 3.42377 4.40789 -8.19588
57 1 2.45856 4.47461 -8.00748
58 1 1.68357 3.96981 -8.16569
59 1 1.13311 4.12503 -7.40954
60 1 0.751641 3.32294 -7.53818
61 1 0.207204 3.04949 -8.31245
62 1 -0.0994422 3.51448 -9.06519
63 1 0.504226 4.24438 -8.93092
64 1 0.304741 5.14053 -8.96681
ITEM: TIMESTEP
350000
ITEM: NUMBER OF ATOMS
64
ITEM: BOX BOUNDS mm mm mm
-3.2000000000000000e+01 3.2000000000000000e+01
-3.2000000000000000e+01 3.2000000000000000e+01
-3.2000000000000000e+01 3.2000000000000000e+01
ITEM: ATOMS id type x y z
1 1 10.7789 19.2998 -0.674791
2 1 10.8986 18.3468 -0.584263
3 1 11.26 17.524 -0.383993
4 1 12.1631 17.5132 -0.0480697
5 1 12.5413 16.6805 0.199983
6 1 12.9778 16.237 0.931673
7 1 12.6346 15.4602 0.464246
8 1 12.1673 14.6578 0.720224
9 1 11.918 14.1536 -0.014597
10 1 11.0225 14.3226 -0.00224004
11 1 10.979 13.4893 -0.488904
12 1 10.7292 13.3324 -1.37491
13 1 10.6429 13.0576 -2.27206
14 1 10.676 12.604 -3.09868
15 1 9.81911 12.7661 -2.71891
16 1 9.13169 12.5532 -3.30705
17 1 8.76161 11.7047 -3.49107
18 1 8.8256 11.972 -4.39602
19 1 8.41477 11.9146 -5.22737
20 1 7.56682 11.7319 -4.91646
21 1 7.64038 11.998 -5.80819
22 1 8.27596 12.5902 -6.10906
23 1 7.64726 12.8135 -6.74789
24 1 7.45462 13.1234 -5.89635
25 1 6.74955 13.5838 -5.4924
26 1 6.06737 13.3968 -6.0679
27 1 5.48986 12.6589 -6.22382
28 1 5.40561 12.7374 -7.16654
29 1 4.6195 12.3929 -7.54464
30 1 3.77192 12.4319 -7.89934
31 1 3.34119 12.5131 -7.06151
32 1 2.94166 13.2715 -7.45429
33 1 2.43868 13.9847 -7.19204
34 1 1.87652 13.4813 -7.75481
35 1 1.21518 14.172 -7.87234
36 1 1.06537 13.6296 -8.62275
37 1 0.383231 13.2172 -9.13405
38 1 -0.200724 13.086 -8.40329
39 1 -1.0497 12.9642 -8.09854
40 1 -1.34959 12.0749 -8.2251
41 1 -1.85991 11.3189 -8.08223
42 1 -1.43894 10.4999 -7.78046
43 1 -0.675747 10.5049 -8.36168
44 1 -0.368095 10.8587 -9.15207
45 1 -0.801552 10.1304 -9.61891
46 1 -1.15801 9.24805 -9.642
47 1 -1.2943 8.90305 -10.4766
48 1 -1.64819 8.36383 -11.1781
49 1 -2.04891 8.13279 -11.9947
50 1 -2.49626 8.98606 -11.8184
51 1 -3.15977 9.4624 -12.2435
52 1 -3.62732 8.67774 -12.5729
53 1 -3.4066 8.10754 -11.893
54 1 -4.3065 7.96216 -11.6398
55 1 -4.44769 8.879 -11.5117
56 1 -5.18593 8.55812 -11.0445
57 1 -6.17324 8.40483 -11.0047
58 1 -6.43771 7.57359 -11.4187
59 1 -7.20513 7.29356 -11.8544
60 1 -7.86418 7.69361 -12.4056
61 1 -7.41146 8.4307 -12.8668
62 1 -6.77883 7.74096 -12.7568
63 1 -6.74389 6.92329 -13.2108
64 1 -7.06141 6.32401 -12.5061
ITEM: TIMESTEP
360000
ITEM: NUMBER OF ATOMS
64
ITEM: BOX BOUNDS mm mm mm
-3.2000000000000000e+01 3.2000000000000000e+01
-3.2000000000000000e+01 3.2000000000000000e+01
-3.2000000000000000e+01 3.2000000000000000e+01
ITEM: ATOMS id type x y z
1 1 11.6731 15.2083 -2.44151
2 1 12.236 14.6161 -1.91313
3 1 12.2497 14.87 -1.01095
4 1 12.0548 13.9511 -0.913195
5 1 12.086 13.0673 -0.570081
6 1 11.1716 13.1077 -0.21491
7 1 10.2841 13.1412 0.0862241
8 1 9.73584 13.878 -0.0174746
9 1 9.50449 14.1139 -0.892606
10 1 8.63831 13.8312 -1.23424
11 1 7.89492 13.5736 -1.80816
12 1 8.67081 13.6487 -2.46873
13 1 9.59083 13.606 -2.4427
14 1 10.2689 14.1319 -2.89844
15 1 11.1501 14.2322 -2.69795
16 1 11.442 14.2916 -3.5829
17 1 11.0805 14.2997 -4.52098
18 1 11.3394 14.8515 -5.27194
19 1 11.8813 14.829 -5.96998
20 1 11.2719 14.2139 -6.33643
21 1 10.7862 13.421 -6.17046
22 1 9.94826 13.0878 -5.81988
23 1 9.01638 12.7465 -5.73706
24 1 8.39162 13.4083 -5.3561
25 1 8.51291 12.9833 -4.53657
26 1 8.07249 12.1885 -4.21752
27 1 8.17932 11.4932 -3.5522
28 1 8.08512 10.5991 -3.32971
29 1 7.51204 10.0176 -3.86428
30 1 7.11597 10.4663 -4.56578
31 1 6.45626 11.0148 -4.16725
32 1 5.60039 10.838 -4.46183
33 1 5.48216 10.8615 -5.40687
34 1 5.66646 9.92805 -5.23889
35 1 4.94505 9.77842 -4.62729
36 1 4.19401 9.89667 -5.19904
37 1 4.57132 10.4482 -5.86937
38 1 4.55186 10.8721 -6.78522
39 1 4.20894 11.3139 -7.56371
40 1 4.41948 11.1239 -8.5028
41 1 3.85885 11.8825 -8.31193
42 1 3.99912 12.5023 -8.98741
43 1 3.9816 13.2837 -9.50891
44 1 3.01979 13.442 -9.46347
45 1 2.12974 13.0808 -9.60357
46 1 2.48887 12.2762 -10.0599
47 1 2.83456 11.4482 -10.2977
48 1 2.24611 11.3058 -11.029
49 1 1.35138 11.4012 -11.4239
50 1 0.644679 11.6455 -12.0629
51 1 0.502662 12.1842 -12.7562
52 1 1.22316 12.732 -12.8864
53 1 0.886666 13.6362 -13.029
54 1 0.898687 13.6403 -13.9588
55 1 0.181411 13.9005 -14.459
56 1 -0.609808 13.6376 -14.0411
57 1 -0.84732 12.8963 -14.5649
58 1 -1.4513 13.0213 -15.2852
59 1 -1.55539 13.0568 -16.2494
60 1 -2.09356 12.5544 -16.868
61 1 -2.2014 11.737 -17.2921
62 1 -2.05241 11.1373 -18.0112
63 1 -1.2246 10.8112 -17.9218
64 1 -0.747991 10.0486 -18.1767
ITEM: TIMESTEP
370000
ITEM: NUMBER OF ATOMS
64
ITEM: BOX BOUNDS mm mm mm
-3.2000000000000000e+01 3.2000000000000000e+01
-3.2000000000000000e+01 3.2000000000000000e+01
-3.2000000000000000e+01 3.2000000000000000e+01
ITEM: ATOMS id type x y z
1 1 9.2827 20.3596 -3.6671
2 1 9.60487 19.8779 -4.42685
3 1 9.25176 20.1279 -5.24353
4 1 8.3691 19.9089 -5.4215
5 1 8.02319 19.0468 -5.35045
6 1 7.88827 18.3534 -5.99527
7 1 7.04715 18.2312 -5.64755
8 1 6.94522 17.3956 -5.19315
9 1 6.25877 17.3398 -4.60022
10 1 6.57585 16.4488 -4.61143
11 1 5.91012 15.9676 -5.06508
12 1 5.36443 15.1992 -4.91795
13 1 4.65946 15.1845 -5.56255
14 1 4.25738 14.4133 -5.87721
15 1 3.61494 13.9267 -6.27392
16 1 4.36963 14.0209 -6.80525
17 1 5.18064 14.3894 -7.21969
18 1 5.26356 15.3584 -7.32537
19 1 5.83224 16.1135 -7.53461
20 1 5.10942 16.6249 -7.80714
21 1 4.71783 16.2757 -8.57958
22 1 4.82978 16.1108 -9.55254
23 1 4.75343 16.0218 -10.5107
24 1 5.49015 15.4824 -10.5454
25 1 6.21992 14.8698 -10.5198
26 1 6.84653 14.7091 -9.85334
27 1 5.9717 14.861 -9.493
28 1 5.23337 14.3474 -9.77762
29 1 4.99373 13.491 -9.31049
30 1 5.26871 12.8611 -9.98022
31 1 5.53557 12.438 -9.19441
32 1 5.98871 12.2434 -8.40105
33 1 6.09874 11.7132 -7.57842
34 1 5.34622 12.0928 -7.11802
35 1 4.76883 11.4402 -7.35242
36 1 3.88758 11.5189 -7.40653
37 1 3.44597 10.6888 -7.381
38 1 3.01452 10.1844 -6.71762
39 1 3.46792 10.3313 -5.87594
40 1 4.24232 10.0813 -6.38053
41 1 4.86446 10.1267 -7.06691
42 1 5.70282 9.9904 -6.60093
43 1 6.22215 10.5407 -7.1747
44 1 6.40718 10.785 -8.05055
45 1 6.68712 10.0111 -8.61085
46 1 6.66114 9.17348 -8.1452
47 1 5.75451 8.8928 -8.17512
48 1 5.23888 9.16048 -7.53081
49 1 5.08071 9.9418 -8.02484
50 1 4.42737 9.58321 -8.56577
51 1 3.99113 8.97487 -7.98462
52 1 3.20965 9.12226 -8.47004
53 1 2.66154 8.53537 -9.10124
54 1 1.82618 8.75522 -9.48695
55 1 1.08463 9.10246 -9.95295
56 1 0.689781 8.5676 -10.5682
57 1 0.463414 7.91796 -11.208
58 1 0.294361 7.44105 -10.3982
59 1 0.0148339 6.70719 -10.9658
60 1 -0.789984 6.92797 -11.3369
61 1 -1.0643 6.66097 -12.2086
62 1 -1.33562 5.91014 -11.6419
63 1 -0.748026 5.84176 -10.9276
64 1 0.151019 5.73491 -10.6607
ITEM: TIMESTEP
380000
ITEM: NUMBER OF ATOMS
64
ITEM: BOX BOUNDS mm mm mm
-3.2000000000000000e+01 3.2000000000000000e+01
-3.2000000000000000e+01 3.2000000000000000e+01
-3.2000000000000000e+01 3.2000000000000000e+01
ITEM: ATOMS id type x y z
1 1 12.9397 21.1371 -6.16671
2 1 12.0105 21.0038 -5.94863
3 1 11.2409 20.4901 -6.08748
4 1 10.9321 20.7637 -5.18487
5 1 11.8122 20.5823 -4.92924
6 1 12.0337 20.951 -4.14901
7 1 12.3422 20.6779 -3.3107
8 1 11.8848 19.8608 -3.13786
9 1 11.2085 19.3031 -3.37862
10 1 10.5858 18.6192 -3.53434
11 1 10.1836 17.7957 -3.62147
12 1 10.148 18.1265 -4.50815
13 1 9.28912 17.9051 -4.80777
14 1 8.65701 17.217 -5.03235
15 1 8.20552 17.6575 -5.73824
16 1 8.13347 17.4304 -6.61625
17 1 7.7969 17.8772 -7.38431
18 1 8.29502 18.6076 -7.82622
19 1 7.54566 19.2064 -7.86601
20 1 6.85888 18.5055 -7.72254
21 1 6.04305 18.514 -7.12534
22 1 5.30933 19.0697 -7.082
23 1 4.42596 19.386 -7.06997
24 1 3.88566 18.6077 -7.12462
25 1 3.4386 18.2812 -7.92933
26 1 3.68502 17.3897 -7.65012
27 1 4.54505 17.0571 -7.25104
28 1 5.01305 16.3502 -6.80892
29 1 4.29517 16.5762 -6.22436
30 1 4.1319 17.2188 -5.60017
31 1 3.69375 18.0371 -5.31405
32 1 3.9097 17.9031 -4.38438
33 1 4.11255 17.0869 -3.97351
34 1 3.20646 17.2162 -3.87986
35 1 3.28012 16.4894 -3.28951
36 1 3.75014 15.6462 -3.24122
37 1 3.63173 14.7678 -3.56061
38 1 3.24889 13.897 -3.68212
39 1 2.99768 13.2299 -4.32816
40 1 2.84708 12.8303 -5.14084
41 1 3.76475 12.762 -5.50536
42 1 4.6859 12.9266 -5.68265
43 1 4.75801 12.5847 -4.84774
44 1 4.66954 11.9359 -5.5492
45 1 4.01904 11.6428 -6.13293
46 1 4.08088 11.3364 -7.05218
47 1 4.41805 11.1932 -7.89315
48 1 4.55877 10.4193 -7.29222
49 1 5.50547 10.2315 -7.26142
50 1 6.04336 9.63287 -7.8055
51 1 6.41558 8.83384 -7.47451
52 1 6.2019 7.8928 -7.32342
53 1 6.65392 7.04828 -7.30124
54 1 7.03672 6.33837 -7.8093
55 1 6.94358 5.41269 -8.04694
56 1 6.77961 4.81643 -7.3418
57 1 7.24927 4.77554 -6.51026
58 1 7.62041 4.08397 -7.00343
59 1 7.85929 3.27947 -7.54121
60 1 8.24712 3.28085 -8.43704
61 1 8.92803 3.53115 -7.88562
62 1 9.67069 3.10062 -7.44118
63 1 10.4831 2.56304 -7.58046
64 1 10.6076 2.85746 -8.47794
ITEM: TIMESTEP
390000
ITEM: NUMBER OF ATOMS
64
ITEM: BOX BOUNDS mm mm mm
-3.2000000000000000e+01 3.2000000000000000e+01
-3.2000000000000000e+01 3.2000000000000000e+01
-3.2000000000000000e+01 3.2000000000000000e+01
ITEM: ATOMS id type x y z
1 1 12.1032 24.156 3.88137
2 1 11.3358 23.7407 4.26383
3 1 10.7893 23.2253 4.82165
4 1 11.0982 22.2642 4.94981
5 1 11.3091 21.5129 4.32974
6 1 10.769 21.2083 3.61267
7 1 10.986 20.4492 3.07161
8 1 11.0622 20.3734 2.09202
9 1 10.4918 19.6892 1.72297
10 1 9.81248 19.1273 1.33201
11 1 9.80519 18.2406 1.61735
12 1 10.0449 17.5641 1.01554
13 1 10.4484 16.8573 0.514391
14 1 9.53842 16.7122 0.269316
15 1 8.8084 17.3086 0.191024
16 1 8.9787 17.0522 -0.718074
17 1 8.95254 17.3359 -1.61197
18 1 8.15502 17.7918 -1.59173
19 1 7.27879 18.0955 -1.3859
20 1 6.64629 18.7647 -1.59119
21 1 6.02716 18.2867 -2.15212
22 1 5.40087 17.8122 -1.59869
23 1 4.51989 18.0519 -1.66676
24 1 3.8902 17.3156 -1.56827
25 1 3.40364 16.7856 -2.24678
26 1 3.10957 16.127 -1.68339
27 1 2.29499 15.6446 -1.358
28 1 1.49029 15.9252 -1.69707
29 1 1.35857 16.3692 -2.52576
30 1 1.40688 16.4827 -3.49129
31 1 2.20721 17.0302 -3.69946
32 1 2.60627 17.1523 -4.6127
33 1 3.3934 17.1305 -5.17172
34 1 3.90341 17.8272 -5.67503
35 1 4.57783 17.7049 -5.03682
36 1 4.96963 17.6102 -4.20541
37 1 5.55141 17.2427 -4.83051
38 1 5.6147 16.6151 -5.53904
39 1 6.21428 17.2595 -5.83081
40 1 7.09196 17.1352 -6.17308
41 1 7.77874 16.4935 -6.41707
42 1 7.3864 15.7079 -6.68276
43 1 7.09011 14.8664 -6.91332
44 1 6.18307 14.6665 -7.09996
45 1 5.37908 14.1718 -7.17784
46 1 5.03914 14.4274 -6.35191
47 1 4.94892 13.9503 -5.56811
48 1 4.1885 13.4426 -5.9217
49 1 3.42083 13.0102 -5.66174
50 1 3.21018 12.6759 -6.48704
51 1 3.68032 13.0189 -7.28027
52 1 4.38109 12.4188 -7.5773
53 1 4.77917 11.7319 -8.1524
54 1 5.53562 11.1945 -8.02887
55 1 6.1207 11.557 -7.4344
56 1 6.09945 10.5851 -7.39635
57 1 6.91183 10.3563 -7.03269
58 1 7.04341 9.46253 -6.93093
59 1 7.17784 8.59485 -6.57478
60 1 6.86942 7.82901 -6.12252
61 1 7.45149 7.04873 -6.2537
62 1 7.62686 6.46295 -6.96659
63 1 8.25992 6.73396 -7.63686
64 1 7.84809 6.72016 -8.51729
ITEM: TIMESTEP
400000
ITEM: NUMBER OF ATOMS
64
ITEM: BOX BOUNDS mm mm mm
-3.2000000000000000e+01 3.2000000000000000e+01
-3.2000000000000000e+01 3.2000000000000000e+01
-3.2000000000000000e+01 3.2000000000000000e+01
ITEM: ATOMS id type x y z
1 1 1.5764 16.5497 -3.88076
2 1 1.68889 15.5862 -4.08845
3 1 2.22445 15.2416 -3.42701
4 1 2.71513 14.7548 -4.08593
5 1 3.18151 14.2427 -3.50666
6 1 4.00127 14.6668 -3.22805
7 1 4.5907 13.9277 -3.05367
8 1 5.4992 13.8546 -2.72678
9 1 6.02026 14.2934 -3.40625
10 1 5.48213 14.1485 -4.13794
11 1 5.70541 15.0354 -4.45937
12 1 5.80637 15.5994 -3.68077
13 1 5.29087 16.3505 -3.63257
14 1 4.48359 16.0878 -4.1178
15 1 4.53619 15.7909 -5.07733
16 1 4.22674 15.0021 -5.45052
17 1 3.54232 14.7102 -6.04893
18 1 2.63875 14.9407 -6.22526
19 1 2.1809 15.6377 -6.5924
20 1 2.63545 16.3591 -6.96947
21 1 3.30029 16.8312 -7.48179
22 1 3.6194 17.3698 -6.71152
23 1 4.39427 17.8361 -6.77599
24 1 4.90787 18.5944 -6.91067
25 1 5.01563 19.4546 -6.54915
26 1 5.90893 19.4455 -6.80093
27 1 5.64818 20.3066 -6.98023
28 1 5.96175 20.4018 -7.88324
29 1 6.77725 20.0151 -8.06489
30 1 7.66408 20.1156 -7.68148
31 1 7.95938 20.8433 -7.13278
32 1 8.72294 20.3297 -6.83713
33 1 9.57802 19.9917 -6.66696
34 1 8.99901 19.9235 -5.90254
35 1 8.91665 20.6298 -5.26316
36 1 9.43971 20.6473 -4.46619
37 1 9.65452 20.1344 -3.70005
38 1 10.5291 20.2678 -3.42992
39 1 11.3797 20.061 -3.03072
40 1 10.6978 19.589 -2.5711
41 1 9.79608 19.9406 -2.47651
42 1 9.80624 19.0888 -2.82846
43 1 9.16676 18.4355 -2.71287
44 1 8.30654 18.2798 -2.41538
45 1 7.49806 17.867 -2.67958
46 1 7.15021 18.2186 -3.50223
47 1 6.6314 17.6224 -3.89821
48 1 6.80145 16.7802 -4.30447
49 1 7.44724 16.931 -4.94715
50 1 8.12448 17.1085 -5.52031
51 1 7.44039 17.1731 -6.17968
52 1 7.38238 16.3223 -6.50389
53 1 6.75655 15.6675 -6.1366
54 1 6.20386 15.2832 -6.79439
55 1 5.32227 15.2687 -7.204
56 1 5.81916 15.7569 -7.87293
57 1 5.80857 16.4366 -8.58536
58 1 6.59928 16.9398 -8.67019
59 1 6.12202 17.6501 -8.90823
60 1 5.77105 17.9071 -9.75879
61 1 5.65356 17.1575 -10.326
62 1 4.95889 16.6342 -10.1691
63 1 4.27552 16.7955 -10.7838
64 1 4.34307 17.464 -10.1279
ITEM: TIMESTEP
410000
ITEM: NUMBER OF ATOMS
64
ITEM: BOX BOUNDS mm mm mm
-3.2000000000000000e+01 3.2000000000000000e+01
-3.2000000000000000e+01 3.2000000000000000e+01
-3.2000000000000000e+01 3.2000000000000000e+01
ITEM: ATOMS id type x y z
1 1 0.996494 10.9554 -2.8585
2 1 0.83259 11.8159 -3.14326
3 1 1.03146 12.6503 -2.63272
4 1 1.93441 12.387 -2.6638
5 1 2.71548 12.5563 -3.13511
6 1 3.42545 13.1557 -2.894
7 1 2.7956 13.3378 -2.24529
8 1 2.18393 14.0241 -2.57815
9 1 2.24324 13.6574 -3.47705
10 1 3.04619 14.0463 -3.81248
11 1 3.13288 14.8851 -4.20809
12 1 2.83593 15.4738 -4.87906
13 1 2.36953 16.2357 -5.1996
14 1 3.1846 16.6044 -4.90662
15 1 3.14761 17.1257 -5.70869
16 1 4.13636 17.154 -5.70021
17 1 4.92684 17.2578 -5.18792
18 1 4.8366 18.0023 -5.72128
19 1 4.67121 18.8504 -5.22533
20 1 5.50595 19.2309 -5.25698
21 1 5.57206 20.1244 -4.92591
22 1 6.51464 20.0417 -5.23422
23 1 7.07096 20.6387 -5.73864
24 1 6.19945 20.5511 -6.12113
25 1 5.32114 20.7864 -6.13365
26 1 4.54454 20.2828 -6.20302
27 1 3.9422 19.6495 -6.52411
28 1 3.22324 19.5039 -5.96747
29 1 2.46846 19.9577 -5.72555
30 1 1.74503 20.3136 -5.3049
31 1 1.92921 21.1052 -4.81133
32 1 2.09201 21.5595 -3.99774
33 1 1.54659 20.7455 -3.68024
34 1 1.44987 20.0119 -4.29031
35 1 0.672209 19.5379 -4.49054
36 1 0.93018 18.7413 -4.13005
37 1 0.712189 18.6074 -3.20442
38 1 0.689825 17.9297 -2.5616
39 1 1.4458 18.3321 -2.17936
40 1 2.00894 19.0298 -1.98911
41 1 1.82397 19.8516 -1.57692
42 1 2.67054 20.0668 -1.31223
43 1 3.44373 19.5392 -1.422
44 1 3.82163 19.4277 -2.27934
45 1 3.88111 18.5904 -2.75794
46 1 4.45005 18.4396 -3.44986
47 1 4.1831 17.5476 -3.38882
48 1 4.73564 17.3957 -4.15773
49 1 5.06554 16.5969 -4.46351
50 1 5.37049 15.9032 -5.05997
51 1 5.16949 15.4603 -5.91051
52 1 5.40243 16.3104 -6.13018
53 1 5.54025 16.3925 -7.06538
54 1 5.90358 15.4899 -7.03169
55 1 5.18613 14.9314 -7.13895
56 1 4.58765 14.4641 -7.67098
57 1 4.60652 13.475 -7.74722
58 1 3.90732 13.0357 -7.2434
59 1 3.72185 12.1617 -7.41356
60 1 4.61842 12.0714 -7.3156
61 1 5.37352 11.531 -7.0483
62 1 5.48181 10.6979 -6.57998
63 1 5.49918 9.75842 -6.44373
64 1 5.76153 8.97889 -6.83807
ITEM: TIMESTEP
420000
ITEM: NUMBER OF ATOMS
64
ITEM: BOX BOUNDS mm mm mm
-3.2000000000000000e+01 3.2000000000000000e+01
-3.2000000000000000e+01 3.2000000000000000e+01
-3.2000000000000000e+01 3.2000000000000000e+01
ITEM: ATOMS id type x y z
1 1 1.14538 16.2855 -0.759175
2 1 0.549628 15.6476 -0.43701
3 1 1.01228 14.869 -0.215939
4 1 1.63297 14.3927 -0.774599
5 1 2.01932 15.1927 -1.13168
6 1 2.765 15.6652 -0.724964
7 1 2.9538 16.5174 -1.04922
8 1 3.00289 16.2677 -2.01452
9 1 3.29736 17.1871 -1.89949
10 1 4.22353 17.2773 -1.90478
11 1 4.22941 17.8474 -2.61455
12 1 4.05375 17.8932 -3.53475
13 1 3.9173 18.0156 -4.4429
14 1 4.27368 18.5093 -5.14233
15 1 5.01487 19.1408 -5.04745
16 1 5.99135 19.2435 -4.97251
17 1 5.98119 20.1247 -5.25531
18 1 6.03891 20.4514 -4.3406
19 1 6.53664 20.9154 -3.6183
20 1 5.6135 21.1005 -3.43291
21 1 5.47783 20.8147 -2.5228
22 1 5.02445 20.8029 -1.65905
23 1 4.22875 20.7462 -1.16467
24 1 4.64086 19.9964 -0.805853
25 1 4.96132 19.1199 -0.894608
26 1 5.60003 18.3989 -1.0937
27 1 6.13664 19.1504 -1.10621
28 1 6.71422 19.8389 -1.29797
29 1 6.9132 20.2421 -0.489973
30 1 7.24697 20.3216 0.449247
31 1 7.62576 20.3004 1.27359
32 1 7.05711 20.96 1.63706
33 1 6.45624 20.5769 2.2347
34 1 6.12582 19.8409 2.77559
35 1 6.15702 18.9777 2.28741
36 1 6.32085 19.299 1.42716
37 1 7.0568 18.757 1.16266
38 1 6.85667 17.9068 1.48943
39 1 6.88585 17.0329 1.92725
40 1 7.30601 16.2544 1.56809
41 1 7.69978 16.5522 0.714516
42 1 7.40914 17.1113 0.027675
43 1 7.73 17.3067 -0.871517
44 1 8.3462 16.6458 -1.08267
45 1 7.70787 16.1696 -1.5346
46 1 8.49386 15.7922 -1.92154
47 1 8.69981 16.5965 -2.29103
48 1 8.70267 16.6446 -3.23158
49 1 8.41251 16.9946 -4.08734
50 1 7.86484 16.3326 -4.52654
51 1 7.53012 15.5048 -4.75055
52 1 7.39576 14.6871 -5.15639
53 1 6.82623 14.3585 -5.89044
54 1 6.9027 14.1637 -6.81574
55 1 6.64218 13.8478 -7.67313
56 1 7.40202 13.3993 -8.12929
57 1 7.4533 13.2325 -9.06132
58 1 7.42628 12.4898 -9.65869
59 1 6.65394 12.1509 -10.0901
60 1 6.11767 11.4517 -10.4259
61 1 5.35758 10.8562 -10.279
62 1 5.88497 10.0851 -10.2686