ITEM: TIMESTEP
1940000
ITEM: NUMBER OF ATOMS
64
ITEM: BOX BOUNDS mm mm mm
-3.2000000000000000e+01 3.2000000000000000e+01
-3.2000000000000000e+01 4.0408416992288281e+01
-3.2000000000000000e+01 3.2000000000000000e+01
ITEM: ATOMS id type x y z
1 1 9.05975 37.9189 -6.51608
2 1 8.85171 38.5823 -7.14499
3 1 8.37163 39.1085 -7.77243
4 1 7.81959 39.7277 -7.3666
5 1 7.64576 39.8065 -8.30137
6 1 8.2405 39.2987 -8.93142
7 1 8.62434 39.8951 -9.5566
8 1 9.38485 40.4012 -9.36862
9 1 9.87765 40.1552 -10.1818
10 1 10.214 39.488 -10.7115
11 1 10.795 38.7996 -10.9768
12 1 10.3134 37.9811 -11.0943
13 1 9.83486 37.1842 -10.8543
14 1 9.56027 36.7589 -10.0625
15 1 8.98324 36.5563 -9.38497
16 1 8.18033 36.5296 -9.88798
17 1 8.29369 36.4233 -10.8164
18 1 8.4892 35.7869 -11.4527
19 1 9.22094 36.0812 -11.959
20 1 8.8872 36.0285 -12.8308
21 1 9.03375 35.9593 -13.8638
22 1 8.18751 36.2801 -13.9439
23 1 7.77964 35.9682 -14.7456
24 1 7.55878 35.8369 -15.6485
25 1 6.67382 36.2778 -15.6762
26 1 5.72935 36.3171 -15.6094
27 1 4.90425 36.4903 -15.2114
28 1 5.14377 35.6187 -15.0706
29 1 5.88228 35.1355 -15.2512
30 1 6.02587 35.0462 -14.3182
31 1 5.77959 35.8312 -13.8593
32 1 5.96846 36.684 -13.6373
33 1 5.59754 37.5507 -13.6366
34 1 5.80726 38.0696 -12.8932
35 1 5.86693 37.3764 -12.1315
36 1 5.32401 36.6357 -11.9434
37 1 5.32129 36.0315 -12.6554
38 1 4.40309 36.0396 -12.6685
39 1 4.24041 35.5013 -11.9093
40 1 4.83149 34.7962 -12.0503
41 1 4.53489 34.7891 -12.9123
42 1 3.85588 34.2642 -12.5378
43 1 3.29987 33.771 -11.9734
44 1 3.84683 33.0349 -12.1559
45 1 4.61131 32.9242 -11.5926
46 1 4.3745 32.139 -12.0155
47 1 4.03325 31.294 -11.7132
48 1 4.25111 30.5299 -11.1399
49 1 3.79355 29.985 -10.4808
50 1 3.56405 29.0929 -10.3941
51 1 2.81846 28.6012 -10.5822
52 1 2.37435 28.2485 -11.3919
53 1 1.89311 27.5131 -11.6972
54 1 2.17463 27.168 -10.8464
55 1 3.05207 26.8597 -10.7738
56 1 2.76444 26.0216 -11.2232
57 1 3.20874 25.5554 -11.879
58 1 3.23728 25.5653 -12.8061
59 1 4.149 25.394 -13.0242
60 1 4.47065 26.1217 -13.5013
61 1 4.48497 26.5672 -14.3016
62 1 3.6947 26.8158 -14.817
63 1 4.46007 26.887 -15.3386
64 1 4.01546 27.6847 -15.2647
ITEM: TIMESTEP
1950000
ITEM: NUMBER OF ATOMS
64
ITEM: BOX BOUNDS mm mm mm
-3.2000000000000000e+01 3.2000000000000000e+01
-3.2000000000000000e+01 3.8220701302533378e+01
-3.2000000000000000e+01 3.2000000000000000e+01
ITEM: ATOMS id type x y z
1 1 6.34114 35.738 -11.6879
2 1 6.32764 35.3954 -10.8439
3 1 5.7932 36.0952 -10.5485
4 1 4.88642 35.8165 -10.3784
5 1 4.53638 36.521 -9.92201
6 1 4.79408 35.9513 -9.24942
7 1 5.72036 35.8392 -9.27128
8 1 5.59864 36.7682 -9.40729
9 1 5.02612 37.5032 -9.60902
10 1 5.11138 37.7596 -10.5026
11 1 4.1991 37.9525 -10.8227
12 1 4.74522 38.1205 -11.551
13 1 5.36864 38.2333 -12.2077
14 1 5.54078 37.7617 -12.938
15 1 6.13343 38.0908 -13.6301
16 1 6.97731 37.9667 -13.3103
17 1 7.80864 38.4306 -12.9837
18 1 8.37525 37.9108 -12.4496
19 1 8.88752 37.1433 -12.6194
20 1 9.13069 36.7698 -13.513
21 1 9.36933 36.81 -14.4242
22 1 9.74954 36.9874 -15.3122
23 1 8.93775 36.3744 -15.3673
24 1 8.21217 36.0879 -15.9033
25 1 7.35785 35.7456 -15.6709
26 1 7.16449 34.9105 -16.0943
27 1 7.10109 34.0317 -15.7849
28 1 6.93064 33.1321 -15.7604
29 1 7.23979 32.4238 -16.2977
30 1 7.45704 32.0259 -17.1361
31 1 7.92995 31.9859 -17.9873
32 1 8.9003 32.3681 -18.1552
33 1 9.5471 31.7312 -18.3285
34 1 9.88533 31.1978 -17.6384
35 1 10.451 30.5328 -17.296
36 1 11.196 30.2346 -16.8046
37 1 11.4387 30.2519 -15.9077
38 1 10.9542 31.0268 -15.8154
39 1 11.5337 31.0472 -15.0961
40 1 11.6287 31.9691 -15.1153
41 1 11.4582 32.8247 -15.4936
42 1 10.5872 32.894 -15.1527
43 1 9.68469 32.741 -15.0032
44 1 9.50526 31.7732 -14.875
45 1 9.94057 30.9159 -14.7405
46 1 9.21191 30.3748 -14.9888
47 1 8.86761 30.5672 -15.7711
48 1 8.5328 30.387 -16.6017
49 1 8.59671 30.3662 -17.5301
50 1 7.8753 29.8403 -17.4726
51 1 8.31806 28.9956 -17.4093
52 1 8.38516 28.1872 -16.9855
53 1 7.90211 27.5669 -16.4381
54 1 7.8721 27.5447 -15.485
55 1 7.79043 27.6131 -14.5273
56 1 7.19334 27.5775 -13.7642
57 1 6.52159 28.0887 -13.2867
58 1 6.83415 28.9051 -12.9294
59 1 6.93652 29.7375 -12.5519
60 1 6.53533 30.4857 -12.9251
61 1 5.71803 30.0044 -13.0141
62 1 4.94568 29.8948 -13.5392
63 1 5.45696 30.013 -14.3456
64 1 5.79281 30.0818 -15.2058
ITEM: TIMESTEP
1960000
ITEM: NUMBER OF ATOMS
64
ITEM: BOX BOUNDS mm mm mm
-3.2000000000000000e+01 3.2000000000000000e+01
-3.2000000000000000e+01 3.9811611894159455e+01
-3.2000000000000000e+01 3.2000000000000000e+01
ITEM: ATOMS id type x y z
1 1 0.414092 38.8124 -15.6851
2 1 0.0875762 39.7028 -15.4976
3 1 -0.835683 39.7028 -15.6561
4 1 -0.871386 39.8774 -16.6017
5 1 -0.611347 38.9929 -17.0308
6 1 0.204266 38.5729 -17.133
7 1 1.10196 38.3012 -17.2726
8 1 2.00739 37.9886 -17.0471
9 1 2.69108 37.4887 -16.6289
10 1 3.13159 37.2141 -15.8736
11 1 4.02378 37.0325 -15.5937
12 1 4.3512 36.6946 -14.7754
13 1 5.18847 37.0226 -15.0241
14 1 5.69245 36.574 -14.4177
15 1 6.43991 35.9549 -14.3624
16 1 7.14401 35.3275 -14.5019
17 1 7.36288 34.5338 -14.0792
18 1 8.29952 34.255 -14.0509
19 1 8.72486 35.1448 -13.9332
20 1 9.49449 35.6872 -14.1578
21 1 9.73805 35.807 -15.0591
22 1 10.6438 35.6624 -14.9149
23 1 11.4876 35.7844 -15.2939
24 1 11.4653 34.8804 -15.5926
25 1 10.5445 34.7148 -15.5279
26 1 9.64369 34.5818 -15.2862
27 1 8.76116 34.1818 -15.286
28 1 8.88383 34.2643 -16.2008
29 1 8.25897 34.3735 -16.9615
30 1 7.66674 34.8596 -17.5734
31 1 7.57055 33.9759 -17.903
32 1 7.38433 33.2901 -18.4591
33 1 6.59865 32.7635 -18.2044
34 1 5.72061 32.4417 -17.7505
35 1 5.63142 32.7931 -18.6793
36 1 5.69235 33.1432 -19.5494
37 1 6.00978 32.3496 -19.9459
38 1 5.59605 31.9352 -19.1505
39 1 4.87414 31.8451 -18.4644
40 1 4.79235 30.9535 -18.0756
41 1 4.06152 31.0467 -17.4603
42 1 4.70932 30.4662 -16.9851
43 1 5.5527 30.2842 -16.6638
44 1 5.65899 29.5233 -16.0703
45 1 4.89115 29.2736 -16.579
46 1 4.42867 29.8942 -16.0004
47 1 3.70047 30.26 -15.5193
48 1 2.83729 30.366 -15.8852
49 1 2.50981 31.1713 -15.6333
50 1 1.63305 31.418 -15.448
51 1 0.856888 31.161 -15.9275
52 1 1.03414 31.9188 -16.5515
53 1 1.00125 31.5936 -17.4113
54 1 0.0953177 31.4489 -17.4777
55 1 -0.789443 31.6209 -17.1821
56 1 -1.56449 31.9424 -17.6832
57 1 -1.94224 31.21 -17.2959
58 1 -2.78675 30.9442 -17.157
59 1 -3.39741 30.5444 -16.5647
60 1 -3.6273 29.7775 -17.0873
61 1 -3.62235 29.1059 -16.4948
62 1 -3.73704 28.2636 -16.1797
63 1 -3.2916 27.5792 -15.6929
64 1 -2.9578 27.13 -16.5002
ITEM: TIMESTEP
1970000
ITEM: NUMBER OF ATOMS
64
ITEM: BOX BOUNDS mm mm mm
-3.2000000000000000e+01 3.2000000000000000e+01
-3.2000000000000000e+01 4.0758653366861125e+01
-3.2000000000000000e+01 3.2000000000000000e+01
ITEM: ATOMS id type x y z
1 1 0.683568 38.8479 -12.1685
2 1 1.22672 38.1081 -12.0656
3 1 1.4063 37.1726 -12.0491
4 1 2.03896 37.6782 -11.4461
5 1 2.59696 38.2986 -10.983
6 1 2.49263 38.8066 -11.7983
7 1 2.71254 39.4613 -11.1572
8 1 3.14609 39.9272 -10.5105
9 1 3.80913 39.3212 -10.7924
10 1 4.39565 39.1123 -11.5344
11 1 3.85757 39.2617 -12.2856
12 1 4.66241 39.1154 -12.7616
13 1 4.93377 38.2723 -12.3858
14 1 5.74009 37.9353 -12.0797
15 1 6.11188 38.6531 -12.6196
16 1 6.25361 39.4216 -13.0228
17 1 6.82134 40.1903 -12.9967
18 1 7.124 40.295 -12.1202
19 1 7.7359 40.7348 -11.6008
20 1 8.47337 40.6121 -12.103
21 1 8.48308 39.7133 -12.3021
22 1 8.02101 39.1177 -12.9094
23 1 7.74252 38.5389 -13.5943
24 1 7.98829 37.7657 -13.1295
25 1 8.83377 37.3915 -12.8891
26 1 9.35117 36.6816 -13.3302
27 1 8.51714 36.4356 -13.8014
28 1 8.45691 35.583 -14.1083
29 1 7.96906 34.8231 -13.812
30 1 7.16335 34.8217 -14.2306
31 1 6.71814 34.0361 -14.7139
32 1 6.00298 33.5558 -14.3626
33 1 5.33649 33.9794 -13.8745
34 1 5.21929 34.6563 -14.5862
35 1 6.0415 35.0075 -14.8945
36 1 5.44816 35.7205 -14.8826
37 1 4.91527 35.2987 -15.5515
38 1 5.36379 35.3944 -16.3662
39 1 5.58081 35.7505 -17.1889
40 1 5.4748 36.5996 -16.8305
41 1 5.11368 36.5751 -17.6888
42 1 5.7994 37.2178 -17.5943
43 1 5.65299 38.1612 -17.8113
44 1 4.72461 38.4327 -17.7108
45 1 4.30056 37.6793 -17.35
46 1 4.69626 37.3171 -16.5715
47 1 3.80795 37.5733 -16.3875
48 1 3.87612 38.2655 -15.7593
49 1 3.64737 37.6653 -15.1042
50 1 3.37033 36.8711 -15.4821
51 1 2.92028 36.4499 -16.2358
52 1 2.67247 35.695 -16.6872
53 1 2.49867 34.777 -16.6208
54 1 3.227 34.4266 -17.0951
55 1 2.90039 35.0307 -17.7343
56 1 2.44582 35.7681 -18.0253
57 1 2.6933 36.7048 -18.2231
58 1 3.44512 36.3201 -17.8444
59 1 3.81706 35.8661 -18.6215
60 1 3.84957 36.6721 -19.0501
61 1 4.79086 36.8683 -19.0739
62 1 5.56807 36.3166 -19.0132
63 1 6.31235 36.0428 -18.5287
64 1 6.45924 35.1258 -18.491
ITEM: TIMESTEP
1980000
ITEM: NUMBER OF ATOMS
64
ITEM: BOX BOUNDS mm mm mm
-3.2000000000000000e+01 3.2000000000000000e+01
-3.2000000000000000e+01 4.4659189375335941e+01
-3.2000000000000000e+01 3.2000000000000000e+01
ITEM: ATOMS id type x y z
1 1 1.45657 44.4127 -7.72791
2 1 1.15774 45.1229 -8.33733
3 1 0.469686 44.9782 -8.91825
4 1 0.774538 44.4421 -9.6444
5 1 1.40402 43.7221 -9.75083
6 1 1.58629 43.8203 -10.6637
7 1 2.27508 43.2005 -10.7195
8 1 3.14763 42.8835 -10.8977
9 1 3.95621 42.4577 -10.8387
10 1 4.66975 42.4054 -10.247
11 1 4.80258 41.5455 -9.95043
12 1 5.06413 40.674 -10.2379
13 1 5.36699 39.7804 -10.4094
14 1 6.31267 40.026 -10.3976
15 1 7.17063 40.0402 -10.7515
16 1 6.88582 39.2711 -11.2105
17 1 6.36624 38.6643 -10.7217
18 1 6.45051 38.3035 -9.86495
19 1 6.23136 37.5554 -9.35405
20 1 6.37422 36.7333 -8.93585
21 1 7.29102 36.4762 -8.75862
22 1 8.11375 36.008 -9.01346
23 1 8.69099 35.2866 -9.20226
24 1 8.04508 34.6644 -9.49837
25 1 7.18518 35.0344 -9.48312
26 1 6.41162 35.399 -9.93218
27 1 5.519 35.5844 -9.83832
28 1 5.02612 35.911 -10.5407
29 1 4.25228 35.634 -10.1378
30 1 3.85355 35.1727 -10.8655
31 1 3.72108 35.0882 -11.8012
32 1 4.21206 34.5602 -12.4054
33 1 4.5588 34.945 -13.1516
34 1 4.92222 35.7699 -12.9774
35 1 5.75734 35.2219 -12.8798
36 1 6.40634 35.9671 -13.0025
37 1 6.31124 36.8728 -12.8278
38 1 6.79697 37.1835 -12.0494
39 1 7.26816 38.0319 -12.1271
40 1 6.69224 38.3308 -12.7992
41 1 6.7408 39.1952 -13.033
42 1 5.84346 39.5303 -12.9492
43 1 5.70832 40.3952 -13.2415
44 1 5.52492 40.2905 -14.2147
45 1 6.0611 40.068 -14.9157
46 1 6.07534 40.9732 -15.292
47 1 6.42429 41.6988 -15.9151
48 1 6.27861 41.9725 -15.0512
49 1 5.35044 41.9185 -14.8286
50 1 4.60637 41.3966 -14.8107
51 1 4.19773 40.5926 -14.6376
52 1 3.34703 40.3223 -14.7832
53 1 2.87281 39.6491 -15.1795
54 1 2.27931 39.1023 -14.7129
55 1 1.37137 39.1253 -15.098
56 1 0.601238 39.4018 -14.6638
57 1 0.768005 40.2059 -15.1544
58 1 0.316694 39.8835 -15.8691
59 1 -0.573782 39.9423 -16.0475
60 1 -1.27571 39.6751 -15.4572
61 1 -2.23686 39.8201 -15.296
62 1 -1.91414 40.4506 -15.8408
63 1 -1.69716 41.3573 -16.035
64 1 -0.968512 40.996 -16.3793
ITEM: TIMESTEP
1990000
ITEM: NUMBER OF ATOMS
64
ITEM: BOX BOUNDS mm mm mm
-3.2000000000000000e+01 3.2000000000000000e+01
-3.2000000000000000e+01 4.2336642438685608e+01
-3.2000000000000000e+01 3.2000000000000000e+01
ITEM: ATOMS id type x y z
1 1 11.1195 39.232 -8.07697
2 1 11.673 39.6782 -8.71663
3 1 11.9454 39.0648 -9.40764
4 1 11.8338 38.9765 -10.3351
5 1 11.099 38.9415 -10.9288
6 1 10.3385 39.4286 -10.9672
7 1 9.9927 39.4141 -11.8092
8 1 9.05092 39.3785 -11.6296
9 1 8.25379 38.9355 -11.3777
10 1 8.18048 39.3548 -12.2234
11 1 8.01108 38.5302 -12.6179
12 1 7.48532 38.3868 -11.8499
13 1 7.10947 37.9581 -11.0629
14 1 6.58375 38.8089 -11.1557
15 1 5.82932 39.2457 -10.8852
16 1 5.3874 40.0678 -11.0637
17 1 4.92497 40.8311 -11.3826
18 1 5.77485 40.8706 -11.7247
19 1 6.52033 40.4751 -11.4156
20 1 6.54989 40.5955 -10.509
21 1 7.42183 41.1043 -10.4862
22 1 8.23422 41.0641 -10.9578
23 1 7.74128 40.7738 -11.7176
24 1 7.49573 41.467 -12.269
25 1 7.38117 41.6614 -13.1766
26 1 6.50988 41.339 -13.0806
27 1 7.09244 40.6895 -13.4866
28 1 6.35734 40.1206 -13.4433
29 1 6.63993 39.9127 -12.5743
30 1 6.58564 39.0757 -12.1429
31 1 5.96318 38.3522 -12.2121
32 1 5.62992 38.0261 -13.0176
33 1 5.3045 38.3351 -13.8536
34 1 4.53681 37.7976 -13.8981
35 1 4.5431 37.108 -13.2791
36 1 4.626 36.2515 -13.0183
37 1 3.95559 36.2564 -12.3468
38 1 4.0085 36.8333 -11.6424
39 1 3.38552 37.5402 -11.3668
40 1 2.83814 38.3255 -11.4708
41 1 3.6679 38.65 -11.3125
42 1 4.54188 38.6805 -11.7995
43 1 4.32676 38.9531 -12.6625
44 1 4.24186 39.8335 -12.8576
45 1 4.96743 39.9641 -13.4264
46 1 4.45841 40.7026 -13.6881
47 1 4.29254 41.5301 -14.197
48 1 4.26582 42.4533 -14.215
49 1 3.67095 42.2427 -14.8778
50 1 3.31443 41.6742 -15.5385
51 1 2.46722 41.9417 -15.735
52 1 1.8796 41.8952 -15.0133
53 1 1.23917 41.3062 -15.4853
54 1 1.23787 40.6558 -16.1358
55 1 1.0661 39.816 -15.8365
56 1 0.888485 39.1996 -15.1782
57 1 0.18209 39.0292 -15.937
58 1 0.542529 39.1874 -16.7935
59 1 0.766143 38.3158 -16.5075
60 1 0.933496 37.424 -16.2849
61 1 1.76237 37.5774 -15.8317
62 1 2.2263 37.0583 -15.1571
63 1 2.68515 36.1824 -14.9942
64 1 2.53209 36.2194 -15.9736
ITEM: TIMESTEP
2000000
ITEM: NUMBER OF ATOMS
64
ITEM: BOX BOUNDS mm mm mm
-3.2000000000000000e+01 3.2000000000000000e+01
-3.2000000000000000e+01 4.5183125355446528e+01
-3.2000000000000000e+01 3.2000000000000000e+01
ITEM: ATOMS id type x y z
1 1 5.16183 42.4671 -11.8398
2 1 5.30772 42.3026 -10.912
3 1 6.11524 42.7733 -10.7051
4 1 7.06306 42.9602 -10.9843
5 1 7.41976 42.188 -11.3069
6 1 7.85866 41.4908 -11.7667
7 1 7.74475 41.227 -12.6384
8 1 8.47353 41.0938 -13.1907
9 1 8.40934 40.1952 -13.4235
10 1 9.26682 40.487 -13.6586
11 1 10.0922 40.116 -13.759
12 1 10.8234 40.3726 -13.1482
13 1 10.572 40.9398 -12.4021
14 1 9.74759 41.3081 -11.9614
15 1 9.34331 42.1531 -12.0685
16 1 8.51162 42.4389 -12.3617
17 1 7.59606 42.7521 -12.4511
18 1 6.86115 42.1941 -12.4934
19 1 6.53946 41.4325 -11.9981
20 1 5.8859 40.7768 -11.8821
21 1 4.98747 40.8743 -11.8799
22 1 4.10627 41.0999 -11.8415
23 1 3.62662 41.5773 -12.5436
24 1 3.98632 41.9173 -13.3619
25 1 3.79733 42.1383 -14.2265
26 1 3.58918 42.9963 -14.5947
27 1 4.00891 43.1379 -15.462
28 1 4.37654 44.0216 -15.3935
29 1 3.97423 43.8363 -16.2958
30 1 4.32625 44.4148 -16.9702
31 1 3.61192 44.0299 -17.3706
32 1 4.27307 44.3848 -18.0168
33 1 3.57777 44.989 -18.2469
34 1 3.02193 44.527 -18.8618
35 1 2.37531 45.1642 -18.5638
36 1 2.31431 44.9976 -17.6471
37 1 2.591 44.1137 -17.5202
38 1 2.43814 43.6603 -16.7496
39 1 2.16427 43.358 -15.8726
40 1 2.07702 43.6455 -14.9624
41 1 2.32671 42.9819 -14.2813
42 1 2.79303 43.6161 -13.7292
43 1 2.36106 43.2845 -12.9789
44 1 2.16026 42.3873 -12.9574
45 1 2.2624 41.7376 -13.6769
46 1 1.34168 41.8513 -13.5919
47 1 1.22414 41.3253 -14.3635
48 1 0.53094 40.7382 -14.1658
49 1 0.112857 40.9265 -14.9923
50 1 -0.620214 40.4581 -15.2304
51 1 -1.04853 39.6571 -15.2193
52 1 -1.29038 39.5499 -14.3075
53 1 -1.49176 39.9551 -13.4561
54 1 -2.3762 39.615 -13.2143
55 1 -2.59726 39.7579 -12.2626
56 1 -3.17926 40.3699 -11.8331
57 1 -3.9353 39.8124 -11.8909
58 1 -4.34721 39.2617 -12.5894
59 1 -4.74327 39.1867 -13.405
60 1 -4.90007 40.0791 -13.1547
61 1 -5.31006 40.0404 -13.9494
62 1 -6.27464 39.9967 -13.9293
63 1 -6.38693 39.622 -14.7765
64 1 -7.00321 40.2213 -15.1478
ITEM: TIMESTEP
2010000
ITEM: NUMBER OF ATOMS
64
ITEM: BOX BOUNDS mm mm mm
-3.2000000000000000e+01 3.2000000000000000e+01
-3.2000000000000000e+01 4.4676881349448713e+01
-3.2000000000000000e+01 3.2000000000000000e+01
ITEM: ATOMS id type x y z
1 1 4.11355 40.2881 -8.75607
2 1 3.74174 41.0266 -9.22248
3 1 4.3194 40.5671 -9.8031
4 1 4.39353 40.5547 -10.756
5 1 4.54427 40.4408 -11.7182
6 1 4.84108 39.6469 -11.4286
7 1 5.36337 39.0005 -11.0001
8 1 6.26395 38.7866 -10.8311
9 1 7.12844 39.1302 -10.8194
10 1 8.09646 39.1724 -10.5828
11 1 8.44598 38.3746 -11.0095
12 1 8.08669 38.2202 -11.8895
13 1 7.72502 38.1351 -12.728
14 1 6.87271 38.4565 -12.6464
15 1 5.92837 38.4347 -12.7474
16 1 5.82795 38.0585 -13.6504
17 1 5.63033 38.8557 -14.1079
18 1 5.70864 38.9165 -15.0731
19 1 4.93187 39.0958 -15.6837
20 1 4.52458 39.8691 -15.9949
21 1 4.1202 40.6209 -16.4085
22 1 4.54024 40.4189 -17.2367
23 1 5.49072 40.5147 -17.311
24 1 5.8461 40.317 -18.1116
25 1 6.69879 39.9615 -18.0376
26 1 6.61847 40.6901 -17.4702
27 1 7.30207 40.9309 -16.8231
28 1 8.1683 41.3507 -16.962
29 1 8.96667 41.7167 -16.6391
30 1 8.9174 42.4484 -16.117
31 1 9.12794 43.3502 -16.1324
32 1 9.07404 42.9928 -17.0096
33 1 8.42807 43.1822 -17.6717
34 1 7.83624 42.7337 -18.3053
35 1 7.30364 43.3568 -18.6763
36 1 7.81136 43.9735 -18.2255
37 1 6.89899 44.0876 -17.7754
38 1 6.56946 44.5451 -17.0549
39 1 6.06996 44.2852 -16.2696
40 1 5.55147 44.6535 -15.5365
41 1 6.01965 43.8484 -15.4318
42 1 5.43267 43.6602 -14.7601
43 1 5.13359 43.0261 -14.1665
44 1 4.73448 42.6258 -14.8903
45 1 4.30939 42.1789 -15.6061
46 1 3.67594 41.6968 -15.0122
47 1 2.78623 41.7619 -14.5677
48 1 2.03458 42.0683 -15.0064
49 1 1.62234 42.701 -14.434
50 1 0.937434 43.183 -14.0223
51 1 0.82009 43.0061 -13.0983
52 1 0.738351 42.1652 -12.4749
53 1 0.0403572 41.7418 -12.0063
54 1 -0.714886 41.6218 -12.561
55 1 -0.261283 41.2507 -13.2694
56 1 -0.777761 41.561 -13.9728
57 1 -1.25653 40.7113 -14.1607
58 1 -1.67334 40.0486 -13.5985
59 1 -2.16613 39.2261 -13.7068
60 1 -2.44639 39.8435 -13.0578
61 1 -2.8548 40.7113 -13.0551
62 1 -3.13837 41.4757 -12.6006
63 1 -2.39236 42.0337 -12.566
64 1 -2.25498 41.5458 -11.7517
ITEM: TIMESTEP
2020000
ITEM: NUMBER OF ATOMS
64
ITEM: BOX BOUNDS mm mm mm
-3.2000000000000000e+01 3.2000000000000000e+01
-3.2000000000000000e+01 4.5455064050164509e+01
-3.2000000000000000e+01 3.2000000000000000e+01
ITEM: ATOMS id type x y z
1 1 5.13145 33.9216 -12.82
2 1 5.28073 34.7814 -12.5664
3 1 5.22166 34.49 -11.6879
4 1 5.35039 35.0743 -10.973
5 1 5.97043 35.7031 -11.3991
6 1 6.62807 36.3658 -11.2933
7 1 7.42412 35.9599 -10.9945
8 1 8.27223 36.4319 -11.1642
9 1 8.09572 37.3837 -10.9976
10 1 8.74805 37.9574 -10.6551
11 1 9.28555 37.5252 -10.0568
12 1 9.49898 37.2134 -9.27185
13 1 8.8286 36.4777 -9.40894
14 1 8.328 35.9717 -8.77222
15 1 8.10632 36.4135 -7.97385
16 1 7.89417 37.1499 -8.56956
17 1 7.96309 38.1053 -8.56623
18 1 8.81555 38.5507 -8.6512
19 1 8.4799 38.5712 -9.53925
20 1 8.68324 39.3506 -9.96678
21 1 8.25679 40.1931 -9.86535
22 1 8.23287 41.0407 -10.2927
23 1 8.4117 41.2532 -11.1607
24 1 8.1843 42.1348 -11.6102
25 1 8.04772 43.08 -11.7567
26 1 8.58406 42.7229 -12.4306
27 1 8.96888 42.7649 -13.3308
28 1 9.13341 42.2933 -14.1341
29 1 9.18054 42.8825 -14.8212
30 1 8.85888 43.1228 -15.6542
31 1 9.41807 42.6789 -16.2096
32 1 9.50637 42.0217 -16.8622
33 1 9.83495 41.5012 -17.5571
34 1 9.18813 42.0482 -17.9898
35 1 8.72006 42.8947 -18.0394
36 1 7.93143 43.2921 -18.4033
37 1 7.23905 43.4697 -17.8201
38 1 6.36336 43.535 -18.2234
39 1 5.8254 42.8653 -18.5646
40 1 5.4756 42.6104 -19.4182
41 1 5.76489 41.679 -19.2947
42 1 6.10565 41.5908 -18.4053
43 1 6.49314 41.9507 -17.5944
44 1 7.1271 41.6216 -16.9789
45 1 8.0115 41.2757 -16.9566
46 1 7.51493 40.7439 -16.42
47 1 7.41233 39.9556 -15.8499
48 1 8.0863 39.4913 -16.2716
49 1 7.61067 38.9175 -16.8285
50 1 8.15194 38.6619 -17.5221
51 1 8.56133 39.2242 -18.1172
52 1 7.70971 39.0325 -18.3312
53 1 6.86808 39.5435 -18.376
54 1 6.11358 39.152 -17.9409
55 1 5.57248 39.3324 -18.6591
56 1 5.15937 40.0875 -18.88
57 1 4.96889 41.0002 -19.0869
58 1 4.71493 41.0616 -18.1719
59 1 3.84481 41.442 -18.0709
60 1 3.70095 42.3408 -18.2275
61 1 4.03985 43.0398 -18.7897
62 1 3.60116 43.8697 -18.7114
63 1 4.08192 44.6544 -18.904
64 1 4.1681 45.3953 -19.4376
ITEM: TIMESTEP
2030000
ITEM: NUMBER OF ATOMS
64
ITEM: BOX BOUNDS mm mm mm
-3.2000000000000000e+01 3.2000000000000000e+01
-3.2000000000000000e+01 4.2639376971343623e+01
-3.2000000000000000e+01 3.2000000000000000e+01
ITEM: ATOMS id type x y z
1 1 11.8999 32.9174 -11.1194
2 1 11.4608 33.0241 -10.2576
3 1 10.686 33.5644 -10.5813
4 1 10.0405 32.908 -10.4354
5 1 9.09554 32.9842 -10.5208
6 1 8.36363 32.3331 -10.5685
7 1 7.70333 32.78 -10.0246
8 1 7.29134 33.4582 -10.5714
9 1 8.18436 33.7966 -10.5148
10 1 8.50482 33.8979 -9.62802
11 1 8.53179 34.6425 -9.08907
12 1 8.34867 35.536 -8.88285
13 1 7.66312 35.9992 -9.30659
14 1 8.14284 36.7432 -9.58329
15 1 8.46744 37.5059 -10.0289
16 1 8.57066 38.0639 -10.7631
17 1 9.08184 38.3416 -11.5286
18 1 9.8766 38.7137 -11.1519
19 1 9.43484 39.4849 -10.9342
20 1 9.54318 39.4633 -11.8412
21 1 8.60134 39.5281 -11.8313
22 1 8.09434 39.2026 -12.5138
23 1 7.61775 39.775 -13.1064
24 1 7.1558 39.4696 -13.8728
25 1 6.4796 39.2733 -14.5168
26 1 5.7842 39.9914 -14.5128
27 1 5.07803 40.1693 -15.0855
28 1 5.02525 39.2842 -15.3122
29 1 5.30912 39.0375 -16.1575
30 1 5.37429 38.8747 -17.1152
31 1 4.52015 38.8888 -17.5151
32 1 3.60152 39.0758 -17.3874
33 1 3.37415 38.7473 -18.2666
34 1 3.08601 38.61 -19.1544
35 1 2.86046 39.3982 -19.623
36 1 3.39327 39.7541 -18.9269
37 1 4.18336 39.2426 -18.7732
38 1 4.85785 38.5598 -18.8859
39 1 5.73038 38.9001 -18.8428
40 1 6.6632 38.9358 -18.7645
41 1 7.60456 38.8944 -18.9192
42 1 7.69405 38.1189 -18.4247
43 1 8.03392 37.9246 -17.575
44 1 8.60488 38.092 -16.8662
45 1 8.54476 38.6007 -16.004
46 1 8.04599 39.0547 -15.341
47 1 8.93657 39.2256 -14.9971
48 1 8.4553 39.7649 -14.3951
49 1 7.8438 40.0904 -15.0231
50 1 7.33663 40.8368 -15.249
51 1 6.57562 41.4343 -15.1258
52 1 6.90796 42.259 -15.5181
53 1 5.98107 42.2995 -15.5849
54 1 6.10313 42.9074 -16.3192
55 1 5.75324 42.3398 -16.9869
56 1 6.37019 41.8954 -17.5097
57 1 6.83387 41.2377 -16.9613
58 1 7.65301 40.9108 -16.5926
59 1 7.48365 40.002 -16.8758
60 1 7.04528 39.1679 -16.6686
61 1 7.22169 38.3152 -16.3989
62 1 7.025 37.6656 -17.0516
63 1 6.3763 38.2192 -17.3874
64 1 6.44265 37.5312 -18.0733
ITEM: TIMESTEP
2040000
ITEM: NUMBER OF ATOMS
64
ITEM: BOX BOUNDS mm mm mm
-3.2000000000000000e+01 3.2000000000000000e+01
-3.2000000000000000e+01 4.2452166485646636e+01
-3.2000000000000000e+01 3.2000000000000000e+01
ITEM: ATOMS id type x y z
1 1 7.6118 38.4187 -7.34743
2 1 7.83032 37.5617 -7.68081
3 1 8.60196 37.4184 -8.17256
4 1 9.21626 37.1087 -8.74463
5 1 9.30189 36.5745 -7.94471
6 1 9.55126 35.7451 -7.61195
7 1 8.65367 35.5069 -7.53743
8 1 8.77418 35.8719 -8.43943
9 1 8.48803 35.7931 -9.33031
10 1 9.2083 35.4737 -9.79971
11 1 10.0497 35.1576 -10.1405
12 1 10.5305 35.0112 -10.92
13 1 10.8941 34.3472 -10.3538
14 1 11.6038 33.7323 -10.7491
15 1 11.1594 33.4343 -11.4926
16 1 10.5094 34.0662 -11.4787
17 1 9.85695 33.7559 -12.0281
18 1 8.99103 33.857 -12.2365
19 1 8.28056 34.2356 -12.7891
20 1 8.13668 34.8501 -13.4268
21 1 7.65032 35.4485 -14.0155
22 1 6.82702 35.1628 -13.7069
23 1 6.31893 35.4763 -14.4957
24 1 6.67899 36.1766 -15.0494
25 1 5.97673 36.6923 -15.37
26 1 5.3337 37.0754 -15.8997
27 1 5.82798 37.9072 -15.8441
28 1 5.62905 38.6317 -15.2434
29 1 6.05971 38.9908 -14.4828
30 1 6.83088 38.8098 -13.9184
31 1 6.97288 39.6952 -14.277
32 1 6.39532 40.281 -13.6998
33 1 7.28518 40.3768 -13.4495
34 1 7.40087 39.4849 -13.2694
35 1 8.14725 39.3031 -13.8056
36 1 8.20889 40.132 -14.193
37 1 8.03914 41.0301 -14.3191
38 1 7.90177 41.6194 -15.0649
39 1 8.74994 41.58 -15.58
40 1 9.69472 41.4564 -15.5509
41 1 10.427 42.0194 -15.235
42 1 10.1863 42.3992 -14.4485
43 1 9.56696 41.7179 -14.5218
44 1 8.94825 41.7514 -13.815
45 1 9.12908 41.7438 -12.867
46 1 8.58167 41.2589 -12.3256
47 1 9.0625 41.066 -11.5125
48 1 10.0083 40.8879 -11.4228
49 1 9.75378 40.1661 -11.9922
50 1 8.8864 40.1422 -12.3044
51 1 8.94591 40.1806 -13.2423
52 1 9.64497 39.8909 -13.8142
53 1 10.0564 39.0712 -13.8933
54 1 9.46556 38.3916 -14.2167
55 1 9.91707 37.5577 -14.0197
56 1 10.747 37.5547 -14.4621
57 1 10.8568 37.1536 -15.2914
58 1 11.361 37.7151 -15.8014
59 1 11.9793 37.1636 -15.2901
60 1 12.3143 36.7697 -14.5343
61 1 12.8655 37.3689 -14.0495
62 1 13.4478 38.0577 -13.8525
63 1 13.6998 38.462 -13.0225
64 1 13.0247 39.1111 -13.0586
ITEM: TIMESTEP
2050000
ITEM: NUMBER OF ATOMS
64
ITEM: BOX BOUNDS mm mm mm
-3.2000000000000000e+01 3.2000000000000000e+01
-3.2000000000000000e+01 4.2029530573367808e+01
-3.2000000000000000e+01 3.2000000000000000e+01
ITEM: ATOMS id type x y z
1 1 13.485 37.2085 -7.15579
2 1 14.1499 37.7331 -7.68336
3 1 14.3907 37.942 -8.58501
4 1 15.0002 38.4346 -9.15477
5 1 15.3345 39.1474 -9.72947
6 1 14.7005 39.0011 -10.3828
7 1 13.9667 38.9026 -10.9985
8 1 13.2193 39.348 -10.5838
9 1 12.3717 39.0246 -10.1408
10 1 12.3344 38.6367 -9.30143
11 1 12.4313 37.9526 -8.64297
12 1 11.5792 37.662 -8.5537
13 1 10.9711 37.3345 -7.91529
14 1 10.1246 37.0475 -8.35344
15 1 9.40754 36.8921 -9.02718
16 1 8.5981 37.1313 -8.69736
17 1 8.13206 36.5768 -8.06734
18 1 8.69807 35.9891 -8.47091
19 1 8.17793 35.9786 -9.23496
20 1 7.23382 35.9355 -9.32429
21 1 6.85409 35.9025 -10.2105
22 1 6.80441 36.5792 -10.8346
23 1 7.2893 37.1388 -11.3837
24 1 8.10789 36.6675 -11.3308
25 1 8.23773 36.4931 -12.2583
26 1 8.32665 36.9013 -13.1292
27 1 8.69497 36.5107 -13.9452
28 1 8.61984 35.7773 -14.5216
29 1 8.85545 34.8034 -14.2363
30 1 9.60947 34.2992 -14.4303
31 1 9.91086 33.5042 -14.044
32 1 9.96727 33.0455 -13.2413
33 1 10.532 33.747 -12.7627
34 1 10.5703 34.7381 -12.8218
35 1 10.6472 35.396 -13.5151
36 1 11.2381 35.9553 -13.0857
37 1 11.0861 36.0442 -12.1096
38 1 11.2792 36.7887 -11.5092
39 1 10.4563 37.1736 -11.3968
40 1 9.64252 37.6516 -11.5892
41 1 9.36964 38.4236 -11.9212
42 1 9.78794 38.8024 -11.148
43 1 9.57575 39.7116 -11.4173
44 1 8.9807 39.7622 -12.1342
45 1 9.35849 40.4387 -12.6474
46 1 10.1704 40.7292 -13.0036
47 1 10.5629 41.2188 -13.6913
48 1 10.9049 41.4418 -14.5541
49 1 11.4782 42.132 -14.9294
50 1 12.2261 42.2371 -14.449
51 1 12.2416 41.4646 -13.9172
52 1 12.5183 40.8484 -13.3855
53 1 13.2339 40.4361 -13.0066
54 1 13.7195 40.9724 -13.6534
55 1 14.1695 40.3157 -14.1556
56 1 14.9218 40.2373 -14.7214
57 1 15.2861 39.9466 -13.8946
58 1 16.1484 40.2502 -13.7055
59 1 17.0506 40.1383 -13.9471
60 1 16.5573 40.043 -14.7489
61 1 16.585 39.2198 -14.2063
62 1 16.3027 38.3052 -14.415
63 1 15.4135 38.0045 -14.5881
64 1 14.6189 38.1687 -15.0437
ITEM: TIMESTEP
2060000
ITEM: NUMBER OF ATOMS
64
ITEM: BOX BOUNDS mm mm mm
-3.2000000000000000e+01 3.2000000000000000e+01
-3.2000000000000000e+01 4.1955123569436061e+01
-3.2000000000000000e+01 3.2000000000000000e+01
ITEM: ATOMS id type x y z
1 1 16.6716 36.7518 -8.11525
2 1 16.6976 36.2231 -8.86878
3 1 16.1247 36.4762 -9.55712
4 1 15.2627 36.3643 -9.34218
5 1 14.9404 37.2884 -9.11236
6 1 14.2304 37.5574 -9.66426
7 1 14.0948 36.5907 -9.5764
8 1 14.4735 36.0675 -10.331
9 1 15.0087 36.441 -10.9996
10 1 15.2159 37.2392 -11.4005
11 1 14.6911 37.8389 -11.8725
12 1 14.3302 38.271 -11.1147
13 1 13.4432 38.0729 -10.9346
14 1 12.7698 37.5659 -10.5577
15 1 12.8512 37.5391 -9.57184
16 1 12.0168 37.8727 -9.742
17 1 11.6578 38.7069 -9.66203
18 1 11.7586 39.4903 -10.2318
19 1 11.7182 39.1873 -11.2023
20 1 10.7882 39.2107 -11.0624
21 1 10.5933 39.8317 -11.6735
22 1 9.67873 39.5727 -11.5829
23 1 9.206 38.7742 -11.8132
24 1 9.21907 39.114 -12.6833
25 1 9.24326 39.186 -13.6008
26 1 9.8846 39.393 -14.2164
27 1 10.0346 38.55 -14.7
28 1 9.51922 37.7401 -14.4517
29 1 9.90853 36.9426 -14.6972
30 1 10.7934 36.9909 -14.4457
31 1 11.2314 36.2507 -14.8187
32 1 11.9529 36.546 -14.2862
33 1 12.1281 36.865 -15.133
34 1 12.5099 37.23 -15.9677
35 1 12.4126 36.3209 -16.2102
36 1 12.4966 36.1255 -17.1087
37 1 11.6324 35.902 -16.9428
38 1 11.4984 35.4899 -17.7708
39 1 12.3736 35.4524 -18.0138
40 1 13.3309 35.3583 -17.8178
41 1 13.8378 35.8196 -17.1892
42 1 14.4206 36.4984 -16.9257
43 1 14.5845 37.4162 -16.865
44 1 14.6684 38.1412 -17.3798
45 1 15.0551 38.7439 -16.793
46 1 15.2202 39.4882 -16.1517
47 1 15.3124 40.4217 -15.9118
48 1 14.4475 40.7405 -15.6589
49 1 13.9588 41.537 -15.7578
50 1 13.2468 40.9635 -15.6137
51 1 12.9633 40.1198 -15.1787
52 1 13.7688 39.9491 -14.8262
53 1 13.7593 39.8257 -13.863
54 1 13.6911 40.7696 -14.0519
55 1 12.8802 40.6535 -13.5713
56 1 12.1542 41.2294 -13.3155
57 1 12.5641 41.9533 -12.8049
58 1 11.7599 41.7203 -12.422
59 1 11.0165 42.014 -13.0787
60 1 10.3025 41.4176 -12.7493
61 1 9.644 40.8586 -12.4254
62 1 9.64135 40.6451 -11.474
63 1 9.27178 40.4002 -10.6407
64 1 8.67366 40.8108 -11.2662
ITEM: TIMESTEP
2070000
ITEM: NUMBER OF ATOMS
64
ITEM: BOX BOUNDS mm mm mm
-3.2000000000000000e+01 3.2000000000000000e+01
-3.2000000000000000e+01 4.3064003879711997e+01
-3.2000000000000000e+01 3.2000000000000000e+01
ITEM: ATOMS id type x y z
1 1 5.30294 29.5599 -6.93931
2 1 4.39554 29.2968 -6.69522
3 1 3.60563 29.7836 -6.90153
4 1 3.42368 29.3267 -7.74982
5 1 3.34241 30.2503 -7.9964
6 1 3.38912 30.0664 -8.91121
7 1 4.09404 30.5338 -9.32227
8 1 4.54704 31.3767 -9.58304
9 1 4.53334 32.0233 -10.3216
10 1 5.14785 32.731 -10.456
11 1 5.09887 33.6338 -10.0845
12 1 5.3754 34.086 -10.8987
13 1 6.11266 33.445 -11.0661
14 1 6.38212 33.9968 -11.7829
15 1 7.25458 34.3747 -11.9679
16 1 7.54787 33.4294 -11.7303
17 1 7.94664 32.5632 -11.5017
18 1 8.75047 31.9865 -11.4075
19 1 8.58449 31.1887 -11.9151
20 1 9.45893 30.7283 -11.857
21 1 10.1621 30.5023 -12.4388
22 1 9.69291 31.1565 -12.993
23 1 8.93603 31.1809 -13.469
24 1 8.14389 31.5642 -13.6876
25 1 7.74515 31.4807 -14.5786
26 1 7.97858 32.2973 -15.0003
27 1 7.14515 32.3748 -15.4238
28 1 6.7563 32.9728 -16.0549
29 1 7.4946 33.3103 -16.516
30 1 6.9086 33.9599 -16.7899
31 1 7.38081 34.168 -17.5489
32 1 7.69645 34.0031 -18.4359
33 1 8.22379 34.5505 -18.9702
34 1 8.27205 35.0397 -19.7769
35 1 8.71984 35.8815 -19.5657
36 1 8.77357 36.6746 -19.1286
37 1 8.36294 37.004 -18.3552
38 1 8.94286 36.8637 -17.6649
39 1 9.21174 37.376 -16.9217
40 1 9.17286 37.8448 -16.1113
41 1 9.15052 36.9153 -15.7707
42 1 9.98351 36.8237 -15.3331
43 1 10.6863 36.4598 -15.8858
44 1 11.2294 36.0821 -15.2629
45 1 12.1377 35.8009 -15.0311
46 1 12.4636 35.7713 -14.1832
47 1 12.8524 36.2692 -13.4237
48 1 12.6343 37.0439 -13.8606
49 1 12.1067 37.833 -13.9897
50 1 12.548 38.5982 -13.8032
51 1 12.6496 39.3342 -13.2442
52 1 12.5774 40.082 -12.5914
53 1 12.2238 40.9269 -12.9696
54 1 12.4931 41.5273 -13.5808
55 1 12.0191 41.5659 -14.3929
56 1 11.6605 40.7716 -14.7792
57 1 11.3079 40.4564 -15.5933
58 1 10.5782 40.0224 -16.0749
59 1 9.86395 40.1668 -16.6833
60 1 9.04574 40.0139 -17.1928
61 1 8.67093 40.8234 -16.8028
62 1 9.18061 41.5573 -17.1367
63 1 9.02499 42.2408 -16.5259
64 1 8.87774 42.9768 -15.9834
ITEM: TIMESTEP
2080000
ITEM: NUMBER OF ATOMS
64
ITEM: BOX BOUNDS mm mm mm
-3.2000000000000000e+01 3.2000000000000000e+01