ITEM: TIMESTEP
1720000
ITEM: NUMBER OF ATOMS
64
ITEM: BOX BOUNDS mm mm mm
-3.2000000000000000e+01 3.2000000000000000e+01
-3.2000000000000000e+01 3.2000000000000000e+01
-3.2000000000000000e+01 3.2000000000000000e+01
ITEM: ATOMS id type x y z
1 1 -1.36262 16.2589 -14.3048
2 1 -1.18243 17.1734 -14.2225
3 1 -0.98422 17.4338 -13.2937
4 1 -0.252178 17.3525 -12.7011
5 1 0.458607 17.628 -12.1435
6 1 0.920083 17.7795 -11.3107
7 1 0.631673 18.1131 -10.497
8 1 0.723202 18.7298 -9.79894
9 1 1.12073 19.1989 -9.08775
10 1 1.71612 19.1713 -8.39852
11 1 1.92054 18.2862 -8.12599
12 1 2.50808 17.7126 -8.59656
13 1 3.34645 17.1495 -8.74907
14 1 4.26713 16.8585 -8.57898
15 1 5.06184 17.0128 -8.115
16 1 5.8421 16.9922 -7.54199
17 1 6.65934 16.6922 -7.10837
18 1 6.9328 15.8964 -6.79237
19 1 6.62385 15.1084 -7.26047
20 1 6.16891 14.272 -7.38395
21 1 5.9696 13.4123 -7.74059
22 1 5.72333 12.4988 -7.69756
23 1 5.94771 11.5555 -7.66967
24 1 6.20832 10.779 -8.14972
25 1 6.68029 10.0057 -8.45826
26 1 6.28733 9.24802 -8.09842
27 1 6.5138 9.18601 -7.20944
28 1 6.35572 8.99743 -6.32039
29 1 5.78954 9.38036 -5.65054
30 1 5.1748 8.95314 -4.96574
31 1 4.60958 8.36155 -4.4868
32 1 3.97655 8.208 -3.8008
33 1 4.22394 8.48198 -2.93625
34 1 3.82899 8.67739 -2.13285
35 1 3.15651 8.86644 -1.45403
36 1 2.8317 7.95753 -1.68654
37 1 2.24006 8.26988 -2.37294
38 1 1.45394 8.33614 -2.9305
39 1 0.767504 8.57686 -3.45805
40 1 0.775722 9.31478 -4.04235
41 1 1.21335 10.0873 -4.20092
42 1 1.58858 10.8965 -3.9603
43 1 2.12419 11.6623 -3.79138
44 1 2.62009 12.3165 -3.42567
45 1 2.60347 13.2506 -3.57515
46 1 3.25832 13.7538 -3.16352
47 1 3.88236 14.3251 -2.72194
48 1 4.20442 14.2711 -1.86389
49 1 4.38675 14.3671 -0.941605
50 1 4.18789 14.2201 0.0236525
51 1 3.67652 14.2437 0.784028
52 1 2.82998 14.1792 1.23693
53 1 2.49676 15.0671 1.45247
54 1 2.05678 15.7262 1.07508
55 1 1.16807 16.0306 1.02683
56 1 0.482351 16.3362 0.400605
57 1 -0.0976133 15.7444 -0.00469477
58 1 -0.745579 15.1267 -0.168934
59 1 -1.3288 14.7593 -0.752789
60 1 -2.06431 15.1053 -1.20662
61 1 -2.68835 15.5819 -1.82643
62 1 -2.3473 16.4244 -1.62256
63 1 -2.5457 17.0785 -0.915791
64 1 -1.92132 17.6248 -0.567978
ITEM: TIMESTEP
1730000
ITEM: NUMBER OF ATOMS
64
ITEM: BOX BOUNDS mm mm mm
-3.2000000000000000e+01 3.2000000000000000e+01
-3.2000000000000000e+01 3.2000000000000000e+01
-3.2000000000000000e+01 3.2000000000000000e+01
ITEM: ATOMS id type x y z
1 1 0.642218 10.5175 -15.7455
2 1 0.511323 10.869 -14.8753
3 1 0.538073 11.3217 -14.0901
4 1 1.13592 12.0085 -13.9068
5 1 1.58028 12.4886 -13.2422
6 1 2.44635 12.5194 -12.7513
7 1 3.38879 12.6437 -12.8959
8 1 4.22096 12.8604 -13.4123
9 1 4.30685 13.7354 -13.1501
10 1 4.53461 14.5651 -12.6933
11 1 5.08318 15.3195 -12.4714
12 1 5.85022 15.6601 -12.0198
13 1 6.70571 15.7052 -12.4627
14 1 7.55516 15.6911 -12.1031
15 1 7.8483 15.0426 -11.5287
16 1 7.92479 14.2714 -11.0071
17 1 8.07219 13.404 -10.5237
18 1 8.24169 12.6905 -10.0087
19 1 8.56166 11.9469 -9.53953
20 1 8.6519 11.2117 -10.0896
21 1 7.81183 11.3965 -10.5467
22 1 7.49102 10.8923 -11.3179
23 1 7.19311 10.4311 -12.0953
24 1 7.69202 9.88986 -12.6704
25 1 8.63523 9.92092 -12.6271
26 1 9.40861 9.71728 -12.122
27 1 9.61756 9.0219 -11.5354
28 1 9.03195 8.39328 -11.2243
29 1 8.37353 7.73617 -11.2592
30 1 8.36301 7.607 -10.3346
31 1 7.98421 8.04397 -9.64505
32 1 7.7105 8.51048 -8.92617
33 1 7.08358 7.99733 -8.39338
34 1 6.63997 7.94716 -7.56142
35 1 6.60549 8.24026 -6.62812
36 1 6.68998 8.66239 -5.79415
37 1 7.00202 9.48513 -5.35749
38 1 7.13982 9.80643 -4.47482
39 1 7.07014 10.3802 -3.79127
40 1 6.96472 10.8328 -2.94026
41 1 6.889 11.269 -2.1158
42 1 6.60282 11.969 -1.62587
43 1 6.0057 12.5117 -1.0854
44 1 6.07726 13.4294 -0.954796
45 1 5.65127 14.1753 -0.706145
46 1 4.89145 14.7451 -0.458863
47 1 3.97783 14.8562 -0.390773
48 1 3.07672 14.6948 -0.498126
49 1 2.19714 14.5529 -0.396863
50 1 1.27543 14.2237 -0.27575
51 1 0.533461 13.6159 -0.240569
52 1 -0.382007 13.4968 -0.119755
53 1 -1.26443 13.7272 -0.457767
54 1 -1.24563 14.5573 -0.942628
55 1 -1.68768 14.5489 -1.86969
56 1 -1.99207 14.2089 -2.6774
57 1 -1.42649 14.3503 -3.3571
58 1 -1.12668 15.0009 -3.94205
59 1 -1.34381 15.6417 -4.53958
60 1 -0.924331 16.4722 -4.90102
61 1 -0.314239 17.2284 -4.87159
62 1 0.555547 17.233 -4.52624
63 1 0.998679 16.7246 -5.2249
64 1 1.66279 16.3394 -5.85938
ITEM: TIMESTEP
1740000
ITEM: NUMBER OF ATOMS
64
ITEM: BOX BOUNDS mm mm mm
-3.2000000000000000e+01 3.2000000000000000e+01
-3.2000000000000000e+01 3.2000000000000000e+01
-3.2000000000000000e+01 3.2000000000000000e+01
ITEM: ATOMS id type x y z
1 1 2.02166 12.7302 -21.7801
2 1 2.94273 12.8017 -21.7487
3 1 3.77997 13.0641 -21.4376
4 1 4.30346 13.0446 -20.6571
5 1 4.98812 12.8935 -20.0465
6 1 4.80879 13.2051 -19.1302
7 1 5.07697 13.6991 -18.4087
8 1 5.23776 13.9557 -17.5007
9 1 5.4568 13.9974 -16.5222
10 1 5.52532 14.0297 -15.5947
11 1 5.31354 13.8853 -14.6434
12 1 5.22557 13.7656 -13.7056
13 1 4.92573 13.1389 -13.0412
14 1 4.16688 12.642 -13.314
15 1 3.32673 12.2161 -13.4517
16 1 2.85361 11.4434 -13.7766
17 1 2.34959 10.7293 -14.122
18 1 1.45735 10.4568 -13.8944
19 1 0.580169 10.4729 -14.2262
20 1 -0.203618 10.9334 -14.4913
21 1 -0.94386 11.3704 -14.9467
22 1 -1.43906 10.7426 -15.536
23 1 -1.81277 9.99606 -15.9722
24 1 -2.57068 9.48841 -16.1408
25 1 -2.87297 8.64889 -16.3055
26 1 -3.42205 8.10053 -15.7167
27 1 -3.66494 8.69261 -14.9778
28 1 -4.12377 8.99522 -14.1692
29 1 -3.87484 9.34925 -13.3547
30 1 -3.69948 9.8429 -12.6064
31 1 -3.25903 10.7743 -12.4058
32 1 -3.00158 11.2612 -11.6754
33 1 -2.55915 11.5707 -10.8834
34 1 -1.96507 12.1383 -10.3991
35 1 -1.92616 12.7074 -9.71461
36 1 -2.7738 12.7362 -9.32332
37 1 -3.46208 12.9047 -8.64454
38 1 -3.43799 13.5089 -7.90739
39 1 -3.025 13.6932 -7.0855
40 1 -2.62751 13.4767 -6.27908
41 1 -1.90441 13.3473 -5.71804
42 1 -2.04784 13.0839 -4.82495
43 1 -2.01414 13.3676 -3.94611
44 1 -2.29721 12.6865 -3.36042
45 1 -2.5303 12.209 -2.54593
46 1 -2.58613 12.736 -1.72253
47 1 -2.59808 12.8995 -0.800297
48 1 -1.87475 12.5773 -0.34379
49 1 -1.31258 12.8752 0.36235
50 1 -0.673955 13.1111 1.02734
51 1 -0.13846 13.5636 1.737
52 1 0.479989 14.2901 1.99045
53 1 0.393844 15.1901 2.37458
54 1 0.449811 15.9963 1.93117
55 1 0.122054 16.6359 2.57277
56 1 -0.461346 16.8916 1.93294
57 1 -0.0210156 17.0383 1.09933
58 1 0.30674 16.5848 0.358443
59 1 -0.0355966 15.8555 -0.0986749
60 1 0.285221 15.3967 -0.811941
61 1 1.20478 15.4626 -0.95179
62 1 1.23813 14.5322 -1.25669
63 1 1.74236 13.8263 -0.793552
64 1 1.71966 12.9283 -1.00381
ITEM: TIMESTEP
1750000
ITEM: NUMBER OF ATOMS
64
ITEM: BOX BOUNDS mm mm mm
-3.2000000000000000e+01 3.2000000000000000e+01
-3.2000000000000000e+01 3.2000000000000000e+01
-3.2000000000000000e+01 3.2000000000000000e+01
ITEM: ATOMS id type x y z
1 1 4.24015 20.1457 -19.371
2 1 4.59366 20.0601 -18.4806
3 1 4.7688 19.7085 -17.6556
4 1 4.67331 19.3892 -16.7748
5 1 4.05594 18.841 -16.381
6 1 3.65019 18.1689 -15.8278
7 1 3.59935 17.2328 -15.618
8 1 3.5777 16.3248 -15.3965
9 1 3.78393 15.421 -15.4183
10 1 4.24799 14.6554 -15.0755
11 1 5.00524 14.0828 -15.072
12 1 5.64973 13.4439 -14.6982
13 1 6.16996 12.8002 -14.2406
14 1 5.61847 12.5899 -13.4766
15 1 5.60586 12.5025 -12.5192
16 1 5.13765 12.7102 -11.7304
17 1 5.03178 13.4633 -11.192
18 1 4.7165 14.1147 -10.5651
19 1 4.29149 14.8309 -10.2372
20 1 3.70954 15.2492 -9.54563
21 1 2.86663 15.4034 -9.13068
22 1 1.97121 15.7582 -9.19917
23 1 1.21378 16.0664 -8.70715
24 1 0.477856 15.8255 -8.14559
25 1 0.314238 15.3202 -7.34445
26 1 0.197985 14.4784 -6.93703
27 1 -0.489164 13.9257 -6.61199
28 1 -1.35692 13.884 -6.23417
29 1 -1.82099 14.672 -6.03614
30 1 -2.26109 15.3797 -6.50656
31 1 -2.57522 16.1863 -6.70262
32 1 -2.41625 16.8685 -7.30436
33 1 -2.57931 17.7534 -7.61629
34 1 -2.57969 18.661 -7.82187
35 1 -2.14544 19.4977 -7.99476
36 1 -1.29593 19.4818 -7.7365
37 1 -1.14917 18.6581 -7.30084
38 1 -1.37141 17.817 -7.09267
39 1 -1.23069 17.0081 -6.73007
40 1 -0.931682 16.9119 -5.79228
41 1 -1.0741 17.3 -4.93624
42 1 -1.50903 17.6503 -4.1713
43 1 -1.94505 17.9649 -3.39128
44 1 -1.51491 18.0896 -2.54499
45 1 -1.19747 17.966 -1.64001
46 1 -0.523666 17.6162 -1.07709
47 1 -0.471745 16.7609 -1.53524
48 1 -1.11549 16.0372 -1.72533
49 1 -1.68396 15.5813 -1.14877
50 1 -1.56579 15.9794 -0.324521
51 1 -1.15141 16.2526 0.490312
52 1 -0.614312 16.6893 1.14251
53 1 0.0508021 16.791 1.86408
54 1 -0.0650949 16.4905 2.74546
55 1 -0.224365 16.5194 3.67906
56 1 -0.29119 15.736 4.23808
57 1 -0.271529 15.0173 3.59183
58 1 -0.719625 14.1583 3.61162
59 1 -0.741432 13.2838 3.86181
60 1 -0.744169 12.4647 4.52364
61 1 -1.07736 11.851 5.1759
62 1 -1.34911 12.4751 5.87547
63 1 -1.10648 12.5803 6.77386
64 1 -0.925072 12.3214 7.71857
ITEM: TIMESTEP
1760000
ITEM: NUMBER OF ATOMS
64
ITEM: BOX BOUNDS mm mm mm
-3.2000000000000000e+01 3.2000000000000000e+01
-3.2000000000000000e+01 3.2000000000000000e+01
-3.2000000000000000e+01 3.2000000000000000e+01
ITEM: ATOMS id type x y z
1 1 4.18811 24.5296 -18.0309
2 1 4.54736 25.3494 -18.3554
3 1 5.36039 25.8842 -18.192
4 1 6.0532 25.6383 -17.6618
5 1 6.56202 24.9721 -17.3283
6 1 6.5907 24.0434 -17.1583
7 1 6.59153 23.1098 -17.0568
8 1 6.24775 22.4883 -16.466
9 1 5.59644 22.1024 -15.8795
10 1 5.486 21.1863 -15.6868
11 1 5.65304 20.3504 -15.1926
12 1 5.7134 20.071 -14.2969
13 1 5.48005 19.7884 -13.4406
14 1 4.86566 19.663 -12.8126
15 1 4.33153 19.5104 -12.0741
16 1 3.38111 19.3848 -11.8929
17 1 2.7608 18.6543 -12.0224
18 1 1.90431 18.2459 -12.111
19 1 1.01792 18.4461 -12.072
20 1 0.102928 18.2885 -12.2326
21 1 -0.705784 18.1168 -11.8055
22 1 -1.38226 17.8439 -11.2157
23 1 -2.10226 17.2658 -11.2067
24 1 -2.48827 16.447 -11.1553
25 1 -1.8551 15.7756 -11.2972
26 1 -1.20755 15.1208 -11.3041
27 1 -1.10797 14.4501 -10.6831
28 1 -1.38711 14.1497 -9.83202
29 1 -1.11629 14.2896 -8.9358
30 1 -1.4432 14.5639 -8.09413
31 1 -1.7644 15.1396 -7.42434
32 1 -1.41169 15.8174 -6.86381
33 1 -0.512567 15.9637 -7.2222
34 1 0.421009 16.013 -7.35967
35 1 1.19099 16.583 -7.1955
36 1 2.0573 16.7309 -6.7108
37 1 2.71165 17.1083 -6.0907
38 1 3.20571 17.8009 -5.76219
39 1 3.97014 18.2708 -5.42907
40 1 4.45514 18.1033 -4.57365
41 1 4.97284 17.6248 -3.96437
42 1 5.48456 17.7907 -3.20305
43 1 5.30103 17.3275 -2.38806
44 1 4.9799 16.5547 -1.90251
45 1 4.95337 15.7319 -1.39998
46 1 5.09902 14.8266 -1.39259
47 1 5.01559 14.0009 -1.71426
48 1 4.19527 13.482 -1.72098
49 1 3.46749 13.2115 -1.07657
50 1 3.05245 13.4022 -0.246296
51 1 3.43269 13.7024 0.555088
52 1 3.50962 13.3038 1.39377
53 1 3.79679 13.1414 2.27599
54 1 3.61893 12.631 3.02374
55 1 3.64227 11.8822 3.59956
56 1 3.443 11.0166 3.62747
57 1 3.13818 10.1656 3.96674
58 1 2.85076 9.30542 4.25148
59 1 2.65815 8.43536 4.4805
60 1 2.21089 7.64258 4.60537
61 1 1.8254 7.0673 5.26017
62 1 2.16484 6.56755 6.04415
63 1 2.78213 5.9736 6.45387
64 1 3.04112 5.47751 7.24643
ITEM: TIMESTEP
1770000
ITEM: NUMBER OF ATOMS
64
ITEM: BOX BOUNDS mm mm mm
-3.2000000000000000e+01 3.2000000000000000e+01
-3.2000000000000000e+01 3.2000000000000000e+01
-3.2000000000000000e+01 3.2000000000000000e+01
ITEM: ATOMS id type x y z
1 1 3.54145 21.1446 -8.33828
2 1 2.71427 21.5857 -8.63427
3 1 1.91976 21.4681 -9.24972
4 1 1.2734 21.9678 -9.74612
5 1 0.624623 21.9237 -10.4703
6 1 0.683531 21.2396 -11.092
7 1 0.688683 20.4075 -11.5907
8 1 0.625812 19.9621 -12.3711
9 1 1.18978 19.5872 -12.9726
10 1 1.95095 19.2489 -12.4935
11 1 2.51764 18.5855 -12.0043
12 1 3.08649 18.5841 -11.2259
13 1 3.43568 18.8745 -10.3962
14 1 2.76211 19.4455 -10.1046
15 1 2.97226 19.6568 -9.16991
16 1 2.68565 20.3281 -8.51155
17 1 2.65134 20.5766 -7.6136
18 1 2.54679 21.2517 -6.94137
19 1 2.67592 21.4436 -6.03781
20 1 2.57338 21.5787 -5.13668
21 1 2.02275 21.9999 -4.4405
22 1 1.26805 22.5285 -4.47129
23 1 0.8223 22.6184 -5.26517
24 1 0.332428 22.1868 -5.92047
25 1 -0.0953597 21.6978 -6.60039
26 1 -0.201474 21.0108 -7.30541
27 1 -0.523162 20.6466 -8.11868
28 1 -0.386291 19.7408 -8.43847
29 1 0.512677 19.7769 -8.6591
30 1 1.12804 19.9933 -7.96638
31 1 0.950865 20.1244 -7.06484
32 1 0.755446 19.7008 -6.21102
33 1 0.19363 19.1975 -5.61907
34 1 0.768588 18.5408 -5.31014
35 1 1.45652 17.8954 -5.52394
36 1 1.01496 17.0558 -5.82711
37 1 0.479237 17.0274 -5.08345
38 1 -0.0461157 16.3966 -4.63784
39 1 -0.703897 15.8683 -4.20245
40 1 -0.72961 15.0669 -3.74646
41 1 -0.544373 14.358 -3.12234
42 1 -0.965916 13.8227 -2.48447
43 1 -0.897422 13.944 -1.57656
44 1 -1.16086 14.2933 -0.718485
45 1 -1.25821 15.0313 -0.0759685
46 1 -0.331634 15.0214 0.163429
47 1 0.635409 14.8554 0.290189
48 1 1.33005 14.4385 0.754951
49 1 1.48913 14.4515 1.69302
50 1 1.9228 14.3775 2.6133
51 1 2.73858 13.9335 2.5464
52 1 3.34148 13.5253 3.12245
53 1 4.25521 13.493 3.40626
54 1 5.09199 13.5827 3.7796
55 1 6.00362 13.465 3.86316
56 1 6.92289 13.6133 4.05968
57 1 7.60874 13.5077 4.73589
58 1 8.25051 14.154 5.06146
59 1 8.26561 14.9766 4.62379
60 1 8.66218 14.7462 3.8146
61 1 9.22868 14.6263 3.00164
62 1 10.0086 14.5113 2.51014
63 1 10.5786 14.0287 1.9276
64 1 10.8134 14.6537 1.31214
ITEM: TIMESTEP
1780000
ITEM: NUMBER OF ATOMS
64
ITEM: BOX BOUNDS mm mm mm
-3.2000000000000000e+01 3.2000000000000000e+01
-3.2000000000000000e+01 3.2000000000000000e+01
-3.2000000000000000e+01 3.2000000000000000e+01
ITEM: ATOMS id type x y z
1 1 4.23143 29.5144 -11.0797
2 1 4.08095 28.5896 -11.0277
3 1 4.59918 27.7924 -11.2332
4 1 4.89857 27.0809 -11.784
5 1 4.96978 26.2534 -11.3863
6 1 5.13304 25.4894 -10.8438
7 1 4.58028 24.8983 -10.4369
8 1 4.49878 24.1782 -9.85511
9 1 4.04383 23.3807 -10.0547
10 1 3.83722 22.6624 -9.52974
11 1 3.8236 21.7965 -9.06974
12 1 3.75641 21.0932 -8.45347
13 1 3.62437 20.5867 -7.66306
14 1 3.19299 20.5002 -6.85272
15 1 3.05268 20.0575 -6.03587
16 1 2.34022 19.7213 -5.48224
17 1 2.16001 19.154 -4.82166
18 1 2.49045 18.8186 -3.98819
19 1 1.82283 18.2108 -3.6826
20 1 1.19922 18.0098 -3.01468
21 1 0.542465 18.5636 -3.46458
22 1 -0.134099 18.833 -4.11871
23 1 -0.915747 19.1828 -4.44827
24 1 -1.84879 19.2409 -4.10152
25 1 -2.56268 19.8267 -3.84792
26 1 -3.15683 19.6122 -4.53787
27 1 -3.24774 19.4788 -5.46611
28 1 -3.00024 19.0325 -6.24367
29 1 -2.12777 19.2344 -6.55196
30 1 -1.26611 19.4553 -6.35912
31 1 -1.20091 20.1875 -5.816
32 1 -0.318445 20.317 -5.98832
33 1 0.556598 20.2196 -6.27964
34 1 1.1017 19.4525 -6.4953
35 1 1.59123 18.8366 -6.98726
36 1 2.28044 18.5567 -7.62797
37 1 3.04343 18.1936 -7.95939
38 1 3.70335 17.5339 -8.08876
39 1 4.00066 16.6511 -8.34972
40 1 4.42853 15.7864 -8.39682
41 1 5.03485 15.1083 -8.48623
42 1 5.51989 14.3548 -8.80144
43 1 6.42876 14.388 -8.63766
44 1 7.35921 14.2611 -8.65973
45 1 8.30239 14.3147 -8.52435
46 1 8.44921 14.9083 -7.87064
47 1 7.98574 15.3609 -7.19934
48 1 8.03516 15.4033 -6.17385
49 1 8.14339 14.9338 -5.37496
50 1 7.88634 14.4328 -4.65116
51 1 8.25569 14.1844 -3.84673
52 1 8.63292 13.9579 -3.01207
53 1 8.55013 13.9316 -2.06016
54 1 8.03826 14.0496 -1.27827
55 1 7.50179 13.9697 -0.459731
56 1 8.05356 13.4686 0.10038
57 1 8.42251 12.7909 0.547519
58 1 8.34854 11.8577 0.385346
59 1 8.19828 11.0448 -0.053254
60 1 8.93681 10.4794 -0.510935
61 1 9.56463 10.3128 -1.10338
62 1 10.1615 10.3004 -1.81178
63 1 10.7944 10.6439 -2.44464
64 1 11.502 11.1613 -2.08971
ITEM: TIMESTEP
1790000
ITEM: NUMBER OF ATOMS
64
ITEM: BOX BOUNDS mm mm mm
-3.2000000000000000e+01 3.2000000000000000e+01
-3.2000000000000000e+01 3.2000000000000000e+01
-3.2000000000000000e+01 3.2000000000000000e+01
ITEM: ATOMS id type x y z
1 1 -2.8741 24.0036 -3.72497
2 1 -3.06254 23.9306 -2.82864
3 1 -2.24621 23.6205 -2.51676
4 1 -1.41357 23.9808 -2.27962
5 1 -0.540541 24.2247 -2.55572
6 1 0.227319 24.0627 -3.20378
7 1 0.289381 23.5822 -4.0028
8 1 -0.102774 23.6918 -4.84484
9 1 0.0450006 24.1736 -5.68777
10 1 0.00920291 24.5718 -6.52307
11 1 -0.732089 24.4139 -7.18485
12 1 -1.66703 24.2689 -7.06726
13 1 -2.37634 24.0053 -6.55035
14 1 -3.08575 23.6652 -6.11214
15 1 -3.97465 23.6257 -5.72038
16 1 -3.90108 22.7103 -5.4214
17 1 -4.18042 21.8119 -5.58701
18 1 -4.40724 20.9323 -5.8634
19 1 -3.514 20.6058 -6.14126
20 1 -3.20561 19.7845 -6.52626
21 1 -3.17254 18.9038 -6.86664
22 1 -3.66499 18.8137 -7.70029
23 1 -3.64602 18.1997 -8.45931
24 1 -2.87078 18.3498 -8.89307
25 1 -2.28965 18.4873 -9.59141
26 1 -1.74251 19.2312 -9.64617
27 1 -0.950515 19.6801 -9.46055
28 1 -0.665018 20.3547 -10.0016
29 1 0.118301 20.8018 -10.2451
30 1 0.972874 20.8924 -10.6412
31 1 1.59986 20.7035 -11.2285
32 1 2.57959 20.5288 -11.1777
33 1 3.47602 20.4025 -11.3213
34 1 4.43951 20.2044 -11.4074
35 1 5.27329 20.0907 -11.8371
36 1 6.16574 19.8768 -12.1186
37 1 7.06596 19.7327 -12.2211
38 1 7.4 19.6241 -11.3424
39 1 7.52639 19.7762 -10.4563
40 1 7.78897 19.7785 -9.5344
41 1 8.40592 20.1134 -8.9335
42 1 8.36188 19.2454 -8.48201
43 1 8.05547 18.7353 -7.77087
44 1 7.63036 18.6077 -6.93584
45 1 7.12962 19.3119 -6.48694
46 1 6.70017 20.1238 -6.56607
47 1 6.53759 20.7299 -5.84691
48 1 5.65608 20.5981 -5.64912
49 1 4.76978 20.2549 -5.40575
50 1 4.36754 20.0108 -4.63087
51 1 4.38292 20.2908 -3.70041
52 1 5.01733 19.7502 -3.32647
53 1 5.63697 19.1443 -3.07701
54 1 5.86469 18.5597 -2.38904
55 1 6.27125 17.7392 -2.43468
56 1 6.27733 17.1854 -3.22214
57 1 6.59371 16.6988 -4.00919
58 1 7.33124 16.152 -4.17884
59 1 7.20547 16.1276 -5.1109
60 1 6.83859 16.3719 -5.93485
61 1 6.44428 16.4315 -6.83843
62 1 5.91358 16.9513 -7.42654
63 1 5.60164 17 -8.35712
64 1 6.13467 16.814 -9.07891
ITEM: TIMESTEP
1800000
ITEM: NUMBER OF ATOMS
64
ITEM: BOX BOUNDS mm mm mm
-3.2000000000000000e+01 3.2000000000000000e+01
-3.2000000000000000e+01 3.2000000000000000e+01
-3.2000000000000000e+01 3.2000000000000000e+01
ITEM: ATOMS id type x y z
1 1 3.89158 20.0152 -7.68521
2 1 4.16796 20.8997 -7.68063
3 1 4.59732 21.602 -7.15804
4 1 4.80694 21.98 -6.30902
5 1 4.67319 22.4293 -5.45038
6 1 4.37618 22.6796 -4.55823
7 1 3.7485 22.8535 -3.91416
8 1 2.92834 22.6238 -4.35412
9 1 2.10545 22.9586 -4.6425
10 1 1.42129 23.3657 -5.18715
11 1 0.554679 23.6473 -5.25891
12 1 -0.241944 23.2456 -5.54579
13 1 -0.874282 22.8789 -6.14398
14 1 -1.67239 22.6697 -6.62857
15 1 -2.25655 22.0914 -7.11598
16 1 -2.94296 21.5172 -7.32718
17 1 -3.56427 20.788 -7.09291
18 1 -3.13937 19.9764 -6.85909
19 1 -2.85897 19.3756 -6.25054
20 1 -2.38547 18.6677 -5.89401
21 1 -1.92498 17.8913 -5.94879
22 1 -1.29956 17.5692 -6.59079
23 1 -1.14092 17.5114 -7.46518
24 1 -1.4024 17.6478 -8.32247
25 1 -1.60688 18.4926 -8.78064
26 1 -1.69957 19.3015 -9.3298
27 1 -1.70832 20.2248 -9.66747
28 1 -1.0716 20.8466 -10.0196
29 1 -0.429987 21.5352 -9.88935
30 1 0.410802 21.7153 -9.7045
31 1 1.27283 21.3526 -9.47482
32 1 2.17816 21.5261 -9.76103
33 1 2.78596 20.8524 -9.67714
34 1 3.10705 19.9626 -9.57141
35 1 3.42874 19.192 -9.03259
36 1 3.48065 18.4331 -8.52095
37 1 4.36516 18.3663 -8.15463
38 1 5.19804 18.4206 -8.54031
39 1 5.96104 18.698 -9.00128
40 1 6.80753 18.5948 -8.67156
41 1 7.72173 18.9099 -8.48374
42 1 8.42194 19.3178 -8.11403
43 1 8.80705 20.0498 -7.64353
44 1 9.63513 20.2498 -7.25305
45 1 10.0243 20.4962 -6.46074
46 1 10.1719 21.2255 -5.88881
47 1 10.5773 21.935 -5.42074
48 1 11.1286 21.3532 -4.92941
49 1 11.309 20.5669 -5.48417
50 1 11.3421 19.7011 -5.81109
51 1 10.7157 19.0255 -6.01959
52 1 10.0964 18.3256 -5.96283
53 1 9.43406 17.9139 -6.42343
54 1 8.51622 17.8705 -6.60599
55 1 7.80757 17.4066 -6.98568
56 1 7.56472 16.5573 -6.72409
57 1 7.82411 15.8822 -6.1353
58 1 7.32735 15.0404 -5.8918
59 1 6.63395 14.408 -5.99441
60 1 5.95538 14.4611 -5.30259
61 1 5.11931 14.6459 -4.96062
62 1 4.25559 14.998 -5.19295
63 1 3.68641 15.5576 -5.77254
64 1 3.50363 16.4464 -6.14318
ITEM: TIMESTEP
1810000
ITEM: NUMBER OF ATOMS
64
ITEM: BOX BOUNDS mm mm mm
-3.2000000000000000e+01 3.2000000000000000e+01
-3.2000000000000000e+01 3.2000000000000000e+01
-3.2000000000000000e+01 3.2000000000000000e+01
ITEM: ATOMS id type x y z
1 1 12.2829 25.4055 -6.00031
2 1 12.166 25.865 -5.21141
3 1 11.5106 26.3444 -4.74796
4 1 10.644 26.6427 -4.90638
5 1 9.6823 26.4056 -4.93577
6 1 8.7054 26.5204 -4.74031
7 1 7.80153 26.3305 -4.72588
8 1 6.98883 26.2021 -5.32232
9 1 6.38908 25.5281 -5.65978
10 1 5.72251 24.8963 -5.69343
11 1 4.96675 24.3516 -5.66252
12 1 4.24438 23.7543 -5.66048
13 1 3.46396 23.4795 -6.09312
14 1 3.55253 23.9589 -6.92958
15 1 3.36057 23.5377 -7.78072
16 1 3.58983 23.6301 -8.68948
17 1 3.91926 22.9093 -9.23067
18 1 3.68698 22.0844 -9.5667
19 1 3.62642 21.503 -10.2847
20 1 2.90101 21.278 -10.8658
21 1 1.98761 20.928 -10.9506
22 1 1.0704 21.1023 -10.6217
23 1 0.131639 20.9084 -10.4928
24 1 -0.813246 20.9146 -10.4498
25 1 -1.22982 20.1624 -10.7107
26 1 -0.588287 20.1602 -11.4618
27 1 0.288036 19.9198 -11.2224
28 1 1.13629 19.6258 -10.7076
29 1 2.05924 19.304 -10.7553
30 1 2.85994 18.8573 -10.5116
31 1 3.3544 18.1291 -10.4376
32 1 3.59437 17.3883 -10.0118
33 1 4.39687 16.8875 -10.0321
34 1 4.09224 16.0901 -10.4304
35 1 5.0256 15.6616 -10.4757
36 1 5.5715 14.9298 -10.3905
37 1 5.93084 14.422 -11.128
38 1 6.56863 13.9366 -11.6384
39 1 6.99574 14.553 -12.1626
40 1 7.52365 15.1597 -12.5301
41 1 7.98328 15.9347 -12.4583
42 1 8.177 16.6923 -11.8824
43 1 8.82569 16.4989 -11.1957
44 1 9.44411 16.5428 -10.4594
45 1 10.3241 16.6681 -10.1881
46 1 10.7087 16.9724 -9.41553
47 1 10.8347 17.1928 -8.52654
48 1 10.8075 17.8068 -7.78367
49 1 10.7444 18.6088 -7.29494
50 1 10.2433 19.0774 -6.58005
51 1 9.81637 19.1681 -5.80245
52 1 9.47872 18.8364 -5.01771
53 1 8.71751 18.2517 -4.87088
54 1 8.18678 17.4927 -4.443
55 1 7.94944 16.6453 -4.16659
56 1 7.76752 15.7278 -4.41962
57 1 7.83802 14.8462 -4.71085
58 1 8.58127 14.3759 -4.21298
59 1 9.37353 14.0233 -3.84657
60 1 9.73018 13.2394 -3.3811
61 1 10.027 12.5602 -2.86745
62 1 10.9007 12.3049 -2.71904
63 1 11.2314 11.4318 -2.53873
64 1 11.0758 10.4986 -2.55638
ITEM: TIMESTEP
1820000
ITEM: NUMBER OF ATOMS
64
ITEM: BOX BOUNDS mm mm mm
-3.2000000000000000e+01 3.2000000000000000e+01
-3.2000000000000000e+01 3.2000000000000000e+01
-3.2000000000000000e+01 3.2000000000000000e+01
ITEM: ATOMS id type x y z
1 1 7.89358 22.9483 -6.45883
2 1 8.8125 22.683 -6.29339
3 1 9.65413 22.9602 -6.55187
4 1 10.0491 22.137 -6.85921
5 1 9.81911 21.3305 -6.33942
6 1 9.43281 20.5296 -5.98771
7 1 8.56191 20.1537 -6.03369
8 1 7.8 19.8444 -5.54566
9 1 7.392 20.4552 -4.99004
10 1 6.50257 20.1021 -5.03143
11 1 5.67062 19.9923 -5.40528
12 1 4.91917 19.4727 -5.51077
13 1 4.49665 18.9438 -6.13167
14 1 4.37855 18.2782 -6.79262
15 1 3.80777 18.5715 -7.47117
16 1 3.56366 19.1795 -8.16079
17 1 4.02199 19.457 -8.84428
18 1 3.79094 20.1859 -9.3394
19 1 3.17866 20.7912 -9.70221
20 1 2.63044 21.4596 -10.0099
21 1 2.93067 22.0566 -10.6574
22 1 3.50538 22.5936 -11.2082
23 1 3.76694 23.3075 -11.7589
24 1 3.90757 24.2607 -12.0743
25 1 4.25812 24.752 -12.7205
26 1 4.62377 24.4684 -13.5393
27 1 4.86494 23.7027 -14.0707
28 1 5.19588 22.9073 -14.3998
29 1 5.27509 21.9646 -14.2098
30 1 5.08439 21.0742 -13.8892
31 1 4.57307 20.3373 -13.6709
32 1 4.37561 19.8309 -12.8066
33 1 4.13729 19.2757 -12.131
34 1 4.04414 18.7898 -11.235
35 1 4.40812 18.714 -10.2678
36 1 4.71323 18.9495 -9.43459
37 1 5.47731 18.7927 -8.87247
38 1 5.88051 18.9319 -8.04294
39 1 6.52305 18.4455 -7.61357
40 1 6.84693 17.6237 -7.1978
41 1 6.80289 16.797 -6.77216
42 1 6.49165 16.4027 -5.89454
43 1 6.01283 16.9961 -5.30643
44 1 5.35321 16.5391 -4.84709
45 1 4.76952 15.7728 -4.77366
46 1 4.03826 15.2137 -5.04396
47 1 3.57852 14.3876 -4.96569
48 1 3.32792 13.5245 -4.92125
49 1 3.12028 12.6133 -4.90536
50 1 3.20619 11.7419 -5.24945
51 1 3.98731 11.1979 -5.22726
52 1 4.57812 10.6323 -5.71312
53 1 4.81449 9.9736 -6.37142
54 1 5.68954 10.2614 -6.02847
55 1 6.43262 10.4842 -5.46747
56 1 7.3156 10.0453 -5.72724
57 1 8.10867 9.5493 -5.939
58 1 8.6528 9.58373 -6.6874
59 1 9.08117 9.76698 -7.50528
60 1 9.99047 10.2114 -7.46531
61 1 10.9157 10.1679 -7.53767
62 1 11.4014 9.96178 -8.31243
63 1 11.6305 9.52742 -9.16558
64 1 12.0606 8.77407 -9.59808
ITEM: TIMESTEP
1830000
ITEM: NUMBER OF ATOMS
64
ITEM: BOX BOUNDS mm mm mm
-3.2000000000000000e+01 3.2000000000000000e+01
-3.2000000000000000e+01 3.2000000000000000e+01
-3.2000000000000000e+01 3.2000000000000000e+01
ITEM: ATOMS id type x y z
1 1 12.4136 28.1046 -3.46367
2 1 11.6263 28.3743 -3.0494
3 1 10.7459 28.3207 -2.72818
4 1 10.3066 27.538 -3.0757
5 1 9.48575 27.2291 -2.6291
6 1 8.66294 27.0576 -2.19084
7 1 8.23163 26.4512 -1.63852
8 1 7.54865 25.8044 -1.51706
9 1 7.33301 24.8822 -1.55032
10 1 7.27747 24.1044 -2.08181
11 1 7.57046 23.5665 -2.80615
12 1 7.49477 22.5886 -2.89527
13 1 7.02784 22.1961 -3.63141
14 1 6.93802 21.4513 -4.21245
15 1 6.61552 20.9965 -4.94322
16 1 6.27415 20.4437 -5.66676
17 1 6.17049 19.8435 -6.39285
18 1 5.56321 19.7127 -7.12423
19 1 5.04119 19.3287 -7.83821
20 1 4.93496 19.48 -8.74572
21 1 4.85991 20.0589 -9.52733
22 1 4.03552 20.4832 -9.49469
23 1 3.10761 20.6309 -9.32486
24 1 2.21874 20.9673 -9.41044
25 1 2.24148 19.9734 -9.51172
26 1 2.93315 19.3481 -9.60196
27 1 3.3494 18.7563 -10.1716
28 1 3.93628 18.0209 -10.2705
29 1 4.39233 17.2325 -10.4219
30 1 5.28049 17.0236 -10.2743
31 1 5.74759 16.5548 -10.9034
32 1 5.69431 15.8489 -10.2636
33 1 6.16301 15.4063 -9.63061
34 1 5.54177 15.7269 -8.96163
35 1 4.88342 15.2928 -8.37951
36 1 4.37862 14.5494 -8.00053
37 1 4.6011 13.5814 -8.00482
38 1 4.86218 12.8269 -7.56673
39 1 4.97029 12.0831 -6.94793
40 1 5.61519 11.8496 -6.33404
41 1 6.45823 11.7155 -5.88643
42 1 7.26797 11.7889 -5.46923
43 1 8.11449 12.201 -5.50135
44 1 8.98337 12.6457 -5.57667
45 1 9.74602 13.1963 -5.5519
46 1 10.0816 14.0791 -5.57049
47 1 10.6174 14.4333 -4.93685
48 1 10.3324 14.7393 -4.11394
49 1 10.2654 15.0312 -3.20986
50 1 10.8912 14.7271 -2.61941
51 1 11.6656 14.1562 -2.32779
52 1 12.1666 13.3725 -2.36805
53 1 12.2755 12.4308 -2.27838
54 1 12.5775 11.5457 -2.41512
55 1 13.2701 10.8569 -2.51247
56 1 13.5877 10.0128 -2.93848
57 1 14.0111 9.21695 -2.64628
58 1 13.5737 8.35414 -2.62885
59 1 13.3813 7.42249 -2.6985
60 1 12.8786 6.91746 -3.36982
61 1 13.0051 6.39119 -4.13655
62 1 13.0437 5.86904 -4.93868
63 1 13.394 5.91179 -5.80666
64 1 13.6533 5.53784 -6.62416
ITEM: TIMESTEP
1840000
ITEM: NUMBER OF ATOMS
64
ITEM: BOX BOUNDS mm mm mm
-3.2000000000000000e+01 3.2000000000000000e+01
-3.2000000000000000e+01 3.2000000000000000e+01
-3.2000000000000000e+01 3.2000000000000000e+01
ITEM: ATOMS id type x y z
1 1 12.4291 24.3349 -2.20722
2 1 13.1633 24.5 -2.78869
3 1 13.1914 25.0048 -3.61835
4 1 13.0784 25.5092 -4.45926
5 1 13.1564 26.2466 -5.0658
6 1 13.4633 27.0707 -5.38767
7 1 13.7256 27.8728 -5.69207
8 1 13.515 28.7473 -5.50831
9 1 12.6129 29.0968 -5.39665
10 1 11.745 28.8691 -5.59797
11 1 10.8599 28.5896 -5.39982
12 1 10.2869 28.2869 -6.08334
13 1 9.77672 27.5961 -6.4249
14 1 9.33773 26.8194 -6.57528
15 1 8.91354 25.9688 -6.66779
16 1 8.80954 25.2486 -7.29403
17 1 9.10598 24.4218 -7.66177
18 1 9.18746 23.5339 -7.97096
19 1 8.70935 22.8627 -7.43941
20 1 8.56215 22.1177 -6.90617
21 1 8.52467 21.1844 -6.95817
22 1 9.28677 20.6162 -7.03088
23 1 9.91062 19.9379 -6.6587
24 1 9.97601 18.9996 -6.58879
25 1 10.3729 18.2198 -6.87858
26 1 10.6676 17.4374 -6.47967
27 1 10.1543 16.6618 -6.39378
28 1 10.0408 15.7181 -6.59464
29 1 9.42676 15.195 -6.12999
30 1 9.35101 14.2566 -6.06598
31 1 9.03711 13.3757 -6.16181
32 1 9.01845 12.5433 -6.55016
33 1 8.92239 11.6415 -6.80358
34 1 8.42179 10.8507 -6.69305
35 1 7.84831 10.2027 -6.94154
36 1 8.58582 9.66054 -7.21237
37 1 9.1402 9.53852 -7.90793
38 1 9.38551 9.94837 -8.72372
39 1 9.0446 10.1687 -9.61318
40 1 8.95667 10.4282 -10.481
41 1 9.55776 9.73071 -10.8457
42 1 10.0638 9.06119 -10.3518
43 1 10.9922 9.00084 -10.1673
44 1 11.8439 9.35539 -10.0026
45 1 12.3813 9.89962 -9.56736
46 1 12.565 10.5635 -8.99252
47 1 12.5767 11.422 -8.58185
48 1 12.6907 12.3099 -8.20322
49 1 13.0809 12.7869 -7.47294
50 1 13.0542 13.3651 -6.67643
51 1 13.8988 13.8796 -6.54656
52 1 14.6388 14.2523 -6.14712
53 1 15.1077 14.53 -5.39172
54 1 14.7444 14.3195 -4.574
55 1 14.2406 13.755 -3.94542
56 1 14.1214 13.0007 -3.41878
57 1 14.6557 13.0831 -2.64001
58 1 15.0074 12.6524 -1.89047
59 1 15.7547 12.1679 -1.50932
60 1 16.3254 11.3931 -1.25493
61 1 16.4882 10.4683 -1.22861
62 1 16.6812 9.52465 -1.16213
63 1 16.4917 8.6083 -1.18961
64 1 16.8117 7.73861 -1.26547
ITEM: TIMESTEP
1850000
ITEM: NUMBER OF ATOMS
64
ITEM: BOX BOUNDS mm mm mm
-3.2000000000000000e+01 3.2000000000000000e+01
-3.2000000000000000e+01 3.2000000000000000e+01
-3.2000000000000000e+01 3.2000000000000000e+01
ITEM: ATOMS id type x y z
1 1 4.82981 27.5047 -9.81388
2 1 5.25616 27.0434 -10.4772
3 1 5.67661 26.4418 -11.0063
4 1 6.29973 25.9459 -11.5416
5 1 6.84899 25.3313 -11.9285
6 1 7.15249 24.741 -11.2494
7 1 7.71013 24.8838 -10.4992
8 1 8.16935 24.477 -9.76917
9 1 8.08723 23.9558 -8.9981
10 1 8.19431 23.4601 -8.19212
11 1 8.70837 23.4703 -7.40157
12 1 8.98768 22.6345 -6.99738
13 1 9.45337 22.2663 -6.27683
14 1 10.1729 22.016 -5.68477
15 1 10.7777 22.5207 -6.14286
16 1 11.3006 23.1464 -6.5571
17 1 11.3747 24.1 -6.67714
18 1 11.3923 25.0661 -6.79014
19 1 11.0712 25.069 -7.67117
20 1 11.3959 24.9643 -8.58437
21 1 11.5167 24.5361 -9.42056
22 1 10.9809 23.7387 -9.47839
23 1 10.6566 22.8884 -9.64448
24 1 10.7105 22.0885 -10.175
25 1 11.1415 21.2504 -10.468
26 1 11.4616 20.5532 -11.0257
27 1 11.6044 19.717 -11.3855
28 1 10.6678 19.3858 -11.4204
29 1 10.4515 18.686 -10.9003
30 1 9.75148 18.1003 -10.7465
31 1 9.3711 17.5962 -10.0343
32 1 9.46267 17.1456 -9.16865
33 1 9.83244 16.6706 -8.47366
34 1 9.72428 15.7314 -8.57385
35 1 9.19064 14.9818 -8.65382
36 1 9.42856 14.0915 -8.60649
37 1 9.52239 13.1653 -8.92431
38 1 9.5463 12.5038 -9.58091
39 1 9.58471 11.6442 -10.021
40 1 9.61793 10.6711 -10.0089
41 1 9.07926 10.0607 -9.58353
42 1 9.40769 9.52583 -8.91282
43 1 9.72237 8.9642 -8.21179
44 1 10.4497 8.58836 -7.82268
45 1 11.2459 8.65748 -7.30979
46 1 11.5701 8.56019 -6.45113
47 1 12.4637 8.55616 -6.18933
48 1 13.3799 8.60116 -5.96073
49 1 14.3757 8.69946 -5.97719
50 1 14.9463 9.41911 -5.80407
51 1 15.5603 10.0892 -5.78227
52 1 15.9384 10.9711 -6.02548
53 1 16.2593 11.5311 -5.30016
54 1 16.2423 11.7615 -4.378
55 1 16.8843 12.0922 -3.79093
56 1 17.4766 12.7461 -3.37902
57 1 17.6773 13.3889 -2.72889
58 1 17.0619 13.6749 -2.04844
59 1 17.0585 13.9014 -1.16385
60 1 17.034 14.254 -0.318394