ITEM: TIMESTEP
1180000
ITEM: NUMBER OF ATOMS
64
ITEM: BOX BOUNDS mm mm mm
-3.2000000000000000e+01 3.2000000000000000e+01
-3.2000000000000000e+01 4.5368135038082222e+01
-3.2000000000000000e+01 3.2000000000000000e+01
ITEM: ATOMS id type x y z
1 1 12.3027 44.3533 -13.3317
2 1 12.349 43.334 -13.2779
3 1 12.2744 43.3265 -12.2941
4 1 12.7778 43.1792 -11.4575
5 1 13.2824 43.7239 -10.8602
6 1 13.3159 44.6143 -10.622
7 1 12.8147 44.9002 -9.88124
8 1 12.1097 45.3604 -9.41061
9 1 11.5682 44.6855 -9.62458
10 1 11.5796 44.0123 -8.96644
11 1 11.405 43.1538 -9.27382
12 1 11.4544 42.4238 -9.93843
13 1 11.6661 41.5948 -10.2399
14 1 12.3132 40.9161 -10.4415
15 1 12.48 40.0373 -10.738
16 1 11.6115 40.1148 -11.0785
17 1 11.1736 40.6571 -10.4424
18 1 10.4048 40.9212 -10.0154
19 1 10.218 41.6513 -10.6268
20 1 9.39908 41.3867 -10.9062
21 1 8.5042 41.7009 -10.9771
22 1 8.34264 40.889 -10.5674
23 1 7.98706 40.8895 -9.70508
24 1 8.90312 40.5582 -9.68789
25 1 8.75461 39.9481 -9.04174
26 1 9.48548 39.4427 -9.35207
27 1 9.76314 38.5037 -9.24917
28 1 9.20903 37.9014 -9.76098
29 1 9.40317 37.8655 -10.7018
30 1 10.1724 37.3487 -10.7262
31 1 10.5763 37.6303 -9.8545
32 1 11.4833 38.1155 -9.9777
33 1 12.2322 37.5593 -9.88123
34 1 12.5884 36.7589 -9.51377
35 1 13.4972 36.7293 -9.29679
36 1 13.1003 37.3011 -8.72687
37 1 12.2853 37.0163 -8.38138
38 1 11.6302 36.9868 -9.07121
39 1 10.8016 36.5075 -9.11094
40 1 10.9674 35.5657 -9.08144
41 1 11.8478 35.5224 -8.71721
42 1 11.9147 35.3324 -7.79848
43 1 12.3952 36.0891 -7.46763
44 1 13.1923 35.6453 -7.33135
45 1 13.5857 35.4592 -6.4657
46 1 13.0188 34.7342 -6.30293
47 1 13.7084 34.7579 -5.67053
48 1 14.2618 34.1007 -5.3794
49 1 15.1277 34.0345 -5.03065
50 1 15.8081 33.3712 -4.86041
51 1 15.6046 33.255 -3.95248
52 1 14.8914 32.7509 -4.34276
53 1 14.5759 32.3853 -3.48345
54 1 14.6492 31.5465 -3.88181
55 1 14.3351 30.819 -4.40715
56 1 13.6915 30.1373 -4.50513
57 1 13.0766 29.4063 -4.44885
58 1 13.268 28.5099 -4.63679
59 1 13.8771 28.4122 -3.93965
60 1 14.7799 28.3701 -3.97046
61 1 15.4898 28.9891 -3.98338
62 1 15.3218 28.6031 -3.12022
63 1 15.5238 27.6182 -3.3285
64 1 14.9312 26.9795 -3.16176
ITEM: TIMESTEP
1190000
ITEM: NUMBER OF ATOMS
64
ITEM: BOX BOUNDS mm mm mm
-3.2000000000000000e+01 3.2000000000000000e+01
-3.2000000000000000e+01 4.3851954846314278e+01
-3.2000000000000000e+01 3.2000000000000000e+01
ITEM: ATOMS id type x y z
1 1 10.4086 43.8452 -14.2911
2 1 10.5726 42.9269 -14.1371
3 1 10.2605 42.1 -14.3949
4 1 10.0554 41.5946 -13.5967
5 1 10.3747 41.4139 -12.6967
6 1 11.0415 40.7709 -12.6951
7 1 11.2344 40.0789 -13.313
8 1 11.7795 39.3643 -12.9892
9 1 10.8623 39.0056 -12.9776
10 1 10.1126 38.9361 -12.438
11 1 9.8396 39.8603 -12.4483
12 1 9.98402 39.6632 -13.3587
13 1 9.9046 38.7733 -13.6718
14 1 9.38958 38.4282 -14.4062
15 1 9.43091 38.0584 -15.2783
16 1 9.49812 37.1938 -15.5733
17 1 8.58694 37.1951 -15.2895
18 1 8.20533 36.4067 -14.93
19 1 8.51475 36.4772 -14.0286
20 1 9.07292 36.7301 -13.3423
21 1 9.93946 36.4376 -13.4456
22 1 10.8676 36.204 -13.1751
23 1 11.1855 35.8327 -12.3886
24 1 12.0532 36.2934 -12.5509
25 1 12.6803 36.963 -12.561
26 1 13.6336 36.7627 -12.4767
27 1 14.246 36.4053 -11.8344
28 1 14.4923 37.2483 -11.48
29 1 13.9871 37.8036 -10.8851
30 1 13.6924 37.896 -9.96377
31 1 13.8668 37.4569 -9.19062
32 1 13.2192 36.7059 -9.12702
33 1 12.7068 35.9335 -9.13441
34 1 13.3267 35.6332 -8.46989
35 1 13.6994 35.0843 -9.12888
36 1 13.5179 34.5109 -9.78532
37 1 13.6092 33.5878 -9.83469
38 1 14.5028 33.3511 -10.1822
39 1 15.164 33.9984 -9.96115
40 1 15.44 34.671 -10.5501
41 1 15.6228 35.3607 -11.1257
42 1 16.4136 35.1813 -10.6473
43 1 16.3117 35.5485 -9.78294
44 1 16.84 36.1638 -10.298
45 1 17.023 36.4439 -9.4165
46 1 17.3093 36.0496 -8.60973
47 1 17.9942 35.8815 -9.19009
48 1 17.3863 35.415 -9.71273
49 1 17.298 34.6627 -9.10731
50 1 17.8572 34.042 -8.7005
51 1 17.6016 33.2091 -8.31059
52 1 17.6868 32.7114 -7.52294
53 1 18.0153 32.2291 -6.83378
54 1 17.2448 31.7284 -6.80063
55 1 17.0743 32.5431 -6.31989
56 1 17.5569 32.8743 -5.54259
57 1 18.4252 32.7899 -5.70753
58 1 18.5097 33.5515 -5.19561
59 1 18.809 34.2203 -4.59829
60 1 18.9064 33.6426 -3.89603
61 1 19.4197 33.1761 -3.27127
62 1 19.7438 32.2414 -3.29885
63 1 20.5407 31.7983 -3.22128
64 1 20.0017 31.4531 -3.95305
ITEM: TIMESTEP
1200000
ITEM: NUMBER OF ATOMS
64
ITEM: BOX BOUNDS mm mm mm
-3.2000000000000000e+01 3.2000000000000000e+01
-3.2000000000000000e+01 4.1812678268326927e+01
-3.2000000000000000e+01 3.2000000000000000e+01
ITEM: ATOMS id type x y z
1 1 2.32405 41.8049 -15.6959
2 1 2.48591 41.4336 -14.798
3 1 3.30081 41.0688 -14.9078
4 1 4.0165 41.3227 -14.3417
5 1 4.61697 40.6475 -14.5096
6 1 4.68539 40.2072 -13.6747
7 1 5.34402 40.884 -13.6081
8 1 6.17473 41.2446 -13.3039
9 1 6.57499 41.6976 -12.6036
10 1 6.83044 41.253 -11.8101
11 1 6.43525 40.4501 -12.1075
12 1 6.77523 40.0226 -12.8443
13 1 6.51113 39.1938 -12.4891
14 1 6.37781 38.3567 -12.7535
15 1 6.3178 37.8693 -13.5751
16 1 5.71432 38.524 -14.0005
17 1 5.30388 38.9741 -14.7414
18 1 5.37047 38.5831 -15.5766
19 1 5.87904 37.7963 -15.3794
20 1 6.71576 37.6407 -14.8422
21 1 7.55019 37.8869 -15.1263
22 1 8.36836 37.3637 -14.8886
23 1 8.31364 36.391 -14.6644
24 1 7.56348 35.9579 -15.2136
25 1 6.82602 35.4226 -15.0152
26 1 6.28798 35.7425 -14.3081
27 1 6.93568 35.7081 -13.5714
28 1 7.00756 36.6429 -13.6912
29 1 7.65206 36.7741 -13.0527
30 1 8.07991 37.4052 -13.6053
31 1 8.37406 38.2399 -14.0065
32 1 8.2358 38.5362 -13.1606
33 1 9.21527 38.5987 -13.2438
34 1 10.1445 38.4514 -12.9982
35 1 10.0235 38.1229 -12.1255
36 1 10.7644 37.7904 -11.637
37 1 11.6885 37.7219 -11.4497
38 1 11.4388 36.8626 -11.1191
39 1 11.7308 36.324 -10.3784
40 1 11.8511 35.4269 -10.6768
41 1 11.548 35.0324 -11.4881
42 1 12.1396 35.5091 -12.0526
43 1 13.0674 35.4476 -11.7833
44 1 13.0086 35.1847 -12.6728
45 1 12.6281 34.3281 -12.9211
46 1 12.8127 33.4762 -12.7285
47 1 13.6527 33.2186 -12.4726
48 1 13.4106 33.9144 -11.9177
49 1 13.8707 34.4612 -11.2578
50 1 14.2511 33.6506 -11.4769
51 1 14.2464 33.7721 -10.5195
52 1 14.4077 33.4017 -9.69283
53 1 14.1765 33.7002 -8.80443
54 1 14.5649 33.0076 -8.3545
55 1 15.3796 32.6345 -8.04298
56 1 15.9696 33.0111 -8.67513
57 1 15.6161 33.0598 -9.49979
58 1 16.463 32.9306 -9.89564
59 1 17.1672 32.3159 -10.1826
60 1 17.9554 32.7939 -10.115
61 1 17.4754 33.0225 -10.9062
62 1 18.1999 33.2681 -11.4381
63 1 18.7504 32.9612 -10.7588
64 1 19.4169 33.4652 -11.1817
ITEM: TIMESTEP
1210000
ITEM: NUMBER OF ATOMS
64
ITEM: BOX BOUNDS mm mm mm
-3.2000000000000000e+01 3.2000000000000000e+01
-3.2000000000000000e+01 4.8795898259670558e+01
-3.2000000000000000e+01 3.2000000000000000e+01
ITEM: ATOMS id type x y z
1 1 4.18932 47.8339 -14.7001
2 1 4.24042 47.546 -13.8414
3 1 3.78403 46.7226 -14.1056
4 1 4.33328 46.5467 -14.8282
5 1 5.15713 46.2314 -14.6666
6 1 5.13079 46.9482 -14.0267
7 1 6.0014 47.3144 -13.9816
8 1 6.95082 47.4703 -13.8019
9 1 6.84193 47.955 -14.62
10 1 6.58585 48.2256 -15.4721
11 1 7.4278 48.7271 -15.493
12 1 7.90896 48.0393 -15.8672
13 1 8.5211 47.4656 -15.3955
14 1 8.71466 46.564 -15.6357
15 1 8.49271 45.8108 -15.0699
16 1 8.73767 45.5495 -14.2198
17 1 9.12537 45.483 -13.3023
18 1 9.146 45.5817 -12.3659
19 1 9.23557 44.708 -12.0005
20 1 8.44671 44.5686 -11.437
21 1 8.63056 43.9011 -12.0839
22 1 8.63214 43.1528 -12.6799
23 1 8.79662 42.2241 -12.9346
24 1 9.67083 41.8938 -13.1448
25 1 9.8994 42.4063 -13.9504
26 1 10.7909 42.509 -13.548
27 1 11.5118 41.8442 -13.6624
28 1 11.731 41.2323 -12.9387
29 1 12.3493 40.6101 -12.6236
30 1 12.5762 40.924 -11.6861
31 1 12.754 40.2414 -11.0855
32 1 12.4183 39.671 -10.4834
33 1 12.3857 38.9137 -9.98742
34 1 12.7682 38.0966 -9.64463
35 1 12.8273 37.1581 -9.98953
36 1 13.7654 37.0071 -10.0795
37 1 13.9743 36.0863 -9.9484
38 1 14.4295 36.5441 -9.2739
39 1 14.8959 37.0673 -8.47971
40 1 14.3136 36.5658 -7.94273
41 1 13.3818 36.5596 -7.71019
42 1 13.4725 37.3243 -7.16483
43 1 12.8747 36.8921 -6.61398
44 1 12.8766 36.4531 -5.78964
45 1 13.1335 36.4234 -4.87865
46 1 13.898 36.1133 -4.40692
47 1 14.4387 36.7311 -4.9089
48 1 15.0332 36.289 -5.51082
49 1 15.8073 35.8111 -5.72975
50 1 15.8022 35.0946 -6.36582
51 1 16.0786 34.5113 -7.03995
52 1 15.9474 33.6754 -7.50829
53 1 15.2152 33.5209 -8.03826
54 1 14.3214 33.6086 -8.27963
55 1 13.506 33.7755 -7.69856
56 1 12.8425 34.4608 -7.7985
57 1 12.8822 34.6073 -8.67982
58 1 13.047 33.9525 -9.34979
59 1 13.8085 34.3983 -9.48129
60 1 14.3084 35.1609 -9.29628
61 1 15.1328 35.3024 -8.91288
62 1 15.4295 35.4066 -9.79559
63 1 15.7033 35.6085 -10.677
64 1 16.2403 35.3437 -11.5173
ITEM: TIMESTEP
1220000
ITEM: NUMBER OF ATOMS
64
ITEM: BOX BOUNDS mm mm mm
-3.2000000000000000e+01 3.2000000000000000e+01
-3.2000000000000000e+01 4.9940230218826869e+01
-3.2000000000000000e+01 3.2000000000000000e+01
ITEM: ATOMS id type x y z
1 1 15.0493 49.1244 -11.3444
2 1 14.5597 49.9795 -11.4684
3 1 13.6421 49.8353 -11.5088
4 1 12.9568 49.7447 -12.1794
5 1 12.1285 49.4267 -12.6375
6 1 11.516 49.1 -12.0091
7 1 10.9369 48.357 -11.8359
8 1 10.2456 48.9808 -12.1202
9 1 9.58851 48.3368 -12.2904
10 1 8.93796 48.2103 -12.9385
11 1 9.71917 47.9356 -13.4367
12 1 9.78432 47.0055 -13.8966
13 1 10.3964 46.3427 -13.5898
14 1 11.0972 45.8982 -13.2167
15 1 11.3739 46.1344 -12.3761
16 1 10.577 45.523 -12.2361
17 1 9.8295 46.1654 -12.1826
18 1 8.89011 46.1771 -12.2317
19 1 8.37135 46.7664 -11.7159
20 1 8.45508 46.7891 -10.7986
21 1 9.01651 47.0147 -10.0288
22 1 8.72539 46.1646 -9.65566
23 1 9.08674 46.0529 -8.80096
24 1 8.46493 45.5156 -8.35313
25 1 8.99118 44.7829 -8.03679
26 1 9.11992 44.3436 -8.83155
27 1 9.19365 43.4443 -9.25284
28 1 9.22247 43.2508 -8.32469
29 1 9.21752 42.566 -7.69053
30 1 9.1637 41.9411 -8.41521
31 1 8.98484 41.3613 -9.18904
32 1 9.61085 41.6382 -9.83436
33 1 9.98821 41.1855 -9.11858
34 1 9.7791 40.2939 -9.26027
35 1 9.39005 39.7264 -9.85865
36 1 9.1308 38.8883 -9.50291
37 1 8.72543 38.5352 -8.73237
38 1 8.64417 38.7841 -7.81888
39 1 8.74413 39.5163 -7.21336
40 1 8.73321 40.084 -6.4601
41 1 8.12964 39.3677 -6.41412
42 1 7.26292 39.3675 -6.03062
43 1 6.97948 39.4375 -5.1317
44 1 7.6364 39.4133 -4.47199
45 1 7.33008 39.3322 -3.57893
46 1 7.61142 38.4758 -3.41161
47 1 8.55217 38.6195 -3.35299
48 1 9.29921 38.0821 -3.76734
49 1 9.95975 37.8732 -3.1409
50 1 10.7433 37.3978 -3.191
51 1 10.6236 37.6589 -4.07976
52 1 10.4147 37.6272 -5.01544
53 1 11.2117 37.9 -5.284
54 1 11.6146 38.2845 -6.08537
55 1 12.238 37.5601 -5.88822
56 1 12.7419 36.8657 -5.52282
57 1 13.573 37.3443 -5.55531
58 1 13.3914 38.2547 -5.53538
59 1 14.2003 38.6611 -5.66381
60 1 14.8168 38.2696 -5.09634
61 1 15.217 38.2577 -4.27279
62 1 15.0211 37.3821 -4.06058
63 1 15.479 36.6196 -3.72737
64 1 14.6888 36.6538 -3.20591
ITEM: TIMESTEP
1230000
ITEM: NUMBER OF ATOMS
64
ITEM: BOX BOUNDS mm mm mm
-3.2000000000000000e+01 3.2000000000000000e+01
-3.2000000000000000e+01 4.7213222741084230e+01
-3.2000000000000000e+01 3.2000000000000000e+01
ITEM: ATOMS id type x y z
1 1 15.3364 42.1861 -13.2107
2 1 14.5092 42.5366 -13.4129
3 1 14.1228 42.6505 -12.5001
4 1 13.8463 42.3503 -11.6428
5 1 13.1903 41.7938 -11.2119
6 1 12.877 41.9695 -12.0818
7 1 12.9569 42.5842 -12.8761
8 1 12.1026 42.5746 -12.5086
9 1 11.1937 42.6149 -12.37
10 1 10.342 42.5668 -11.868
11 1 9.42118 42.5023 -11.5656
12 1 9.55926 41.8043 -10.9174
13 1 9.80891 40.8611 -11.1426
14 1 10.6973 41.1188 -10.8644
15 1 10.559 41.6851 -10.1381
16 1 10.8821 41.0388 -9.4958
17 1 11.5461 41.6317 -9.17768
18 1 12.1328 42.3668 -9.5245
19 1 12.3334 42.9978 -10.1959
20 1 12.609 43.86 -10.1774
21 1 11.9859 44.3609 -10.6187
22 1 11.8776 45.2726 -10.2613
23 1 12.1212 45.4436 -9.34821
24 1 11.8096 46.3195 -9.63275
25 1 11.1822 46.8023 -9.06886
26 1 10.837 46.9195 -9.95489
27 1 11.3639 47.1612 -10.7214
28 1 11.7521 46.6487 -11.3753
29 1 12.7228 46.4878 -11.7422
30 1 13.0825 46.4958 -10.8767
31 1 13.1614 45.7822 -10.2752
32 1 13.3157 45.2239 -9.5923
33 1 13.6838 45.4059 -8.75367
34 1 13.7946 44.4338 -8.79307
35 1 13.7426 44.0004 -7.94168
36 1 14.0299 44.4028 -7.08218
37 1 14.285 43.9682 -6.35378
38 1 14.66 43.419 -5.73354
39 1 14.8538 43.0337 -4.84257
40 1 14.0279 42.7362 -5.17119
41 1 13.2478 43.248 -5.25842
42 1 13.2161 43.4919 -6.22002
43 1 12.5591 44.1655 -6.25644
44 1 11.7367 44.5877 -6.5159
45 1 10.9714 45.041 -6.31943
46 1 10.0928 44.8048 -6.51853
47 1 10.6948 44.0957 -6.82658
48 1 10.3313 43.2435 -7.01267
49 1 10.2686 42.3881 -6.61079
50 1 10.5281 41.5308 -6.81613
51 1 11.0634 41.5664 -5.93335
52 1 11.0073 40.63 -6.10942
53 1 11.3416 39.7889 -6.09832
54 1 10.9774 38.9821 -6.33565
55 1 9.95372 38.9607 -6.31056
56 1 9.39791 38.572 -6.93502
57 1 8.82873 37.8702 -6.57785
58 1 8.50145 38.1198 -7.44527
59 1 8.07387 37.3464 -7.80774
60 1 7.94636 37.3209 -8.72541
61 1 8.31037 36.9463 -9.51817
62 1 8.81864 36.6009 -8.83017
63 1 9.545 37.0502 -9.12195
64 1 10.1565 36.9226 -8.3987
ITEM: TIMESTEP
1240000
ITEM: NUMBER OF ATOMS
64
ITEM: BOX BOUNDS mm mm mm
-3.2000000000000000e+01 3.2000000000000000e+01
-3.2000000000000000e+01 4.8202608955685896e+01
-3.2000000000000000e+01 3.2000000000000000e+01
ITEM: ATOMS id type x y z
1 1 9.67269 46.1095 -15.7993
2 1 10.3165 46.2074 -16.5499
3 1 11.2354 46.2977 -16.4069
4 1 11.5069 45.7673 -15.6191
5 1 11.7999 45.1944 -16.3344
6 1 12.7378 45.0007 -16.0893
7 1 12.1499 44.229 -15.9943
8 1 11.4077 43.9222 -15.5315
9 1 10.9946 43.2751 -16.0794
10 1 11.7072 42.8166 -16.4195
11 1 12.4606 42.2162 -16.5019
12 1 12.6302 42.6768 -15.7019
13 1 12.9497 42.958 -14.8704
14 1 12.3596 43.6369 -14.4917
15 1 12.6016 43.3426 -13.6013
16 1 13.5235 43.5487 -13.5692
17 1 13.8175 44.0447 -12.7729
18 1 13.3428 44.6916 -13.2621
19 1 13.3474 45.3174 -13.9616
20 1 12.8551 46.157 -13.8345
21 1 12.0579 46.2091 -14.3376
22 1 11.1101 46.2368 -14.6444
23 1 10.4094 46.8845 -14.6033
24 1 10.3496 47.0458 -13.6562
25 1 10.0761 47.9198 -13.8458
26 1 10.2143 47.8544 -12.9281
27 1 11.1583 47.9034 -13.0575
28 1 11.6913 47.9659 -12.3137
29 1 11.05 47.8417 -11.6411
30 1 11.3774 47.0166 -11.6512
31 1 11.8967 46.4715 -11.0258
32 1 11.7146 46.4893 -10.0805
33 1 11.1084 46.5703 -9.31361
34 1 10.2347 46.5341 -8.96344
35 1 9.43741 46.1616 -8.64336
36 1 9.0635 46.4536 -7.78952
37 1 8.925 47.0056 -7.04805
38 1 8.01521 47.0336 -6.88241
39 1 7.84635 46.2463 -7.3792
40 1 7.76123 45.4174 -7.65937
41 1 7.0119 45.6058 -7.10606
42 1 7.42411 44.8566 -6.70735
43 1 7.15497 44.9271 -5.80624
44 1 6.90222 45.7598 -5.53208
45 1 7.14558 46.1534 -4.73055
46 1 7.0315 46.1613 -3.80108
47 1 7.0788 45.2438 -3.83548
48 1 6.16922 45.297 -3.79111
49 1 5.20849 45.3551 -3.52983
50 1 4.7117 45.054 -4.26008
51 1 4.41892 45.0988 -5.15434
52 1 4.33952 44.3344 -5.68862
53 1 4.70054 43.5769 -5.31418
54 1 4.5679 43.2526 -4.40441
55 1 4.34043 42.8273 -3.57391
56 1 4.40582 41.9081 -3.70458
57 1 4.46248 41.0747 -4.15403
58 1 5.15374 41.5557 -4.56345
59 1 5.78154 41.1455 -5.21609
60 1 5.55788 41.7111 -5.91515
61 1 5.52515 42.6323 -5.82491
62 1 5.82382 43.4681 -6.03784
63 1 6.47091 43.0848 -5.52812
64 1 7.1016 42.7425 -4.98315
ITEM: TIMESTEP
1250000
ITEM: NUMBER OF ATOMS
64
ITEM: BOX BOUNDS mm mm mm
-3.2000000000000000e+01 3.2000000000000000e+01
-3.2000000000000000e+01 4.7799956404911597e+01
-3.2000000000000000e+01 3.2000000000000000e+01
ITEM: ATOMS id type x y z
1 1 8.29363 46.2315 -17.9146
2 1 8.46817 45.5809 -17.1531
3 1 7.53037 45.733 -17.0426
4 1 7.4931 46.0906 -16.2286
5 1 7.76459 45.1827 -16.0435
6 1 7.64112 45.1075 -15.1107
7 1 8.06758 45.6844 -14.4669
8 1 8.88834 45.2081 -14.341
9 1 8.69742 44.2716 -14.3049
10 1 9.57849 44.2629 -13.881
11 1 9.52756 43.3389 -13.7241
12 1 9.52185 42.4972 -13.3325
13 1 10.2336 41.9084 -13.3483
14 1 11.0967 42.2152 -13.4745
15 1 11.8321 41.8803 -14.0074
16 1 12.6959 42.2312 -13.7784
17 1 13.4396 42.2599 -13.2075
18 1 12.8789 41.5323 -12.9107
19 1 13.2748 40.6799 -12.8832
20 1 14.193 40.5415 -12.6699
21 1 15.0656 40.5064 -12.4379
22 1 15.6243 41.096 -12.8671
23 1 15.8081 41.8826 -12.3105
24 1 15.8716 42.8319 -12.3806
25 1 15.517 43.4588 -11.7049
26 1 15.8417 43.3788 -10.8093
27 1 16.6597 43.3061 -10.2902
28 1 16.0489 43.5545 -9.6511
29 1 15.6139 44.3619 -9.32754
30 1 16.2828 44.2649 -8.62302
31 1 15.7458 43.9263 -7.8845
32 1 15.0246 44.4735 -7.74391
33 1 14.7671 43.8581 -8.37377
34 1 14.8707 43.0683 -7.88462
35 1 15.0791 43.5039 -7.08066
36 1 15.3464 43.3089 -6.20406
37 1 14.6342 42.7383 -6.26056
38 1 13.6832 42.8585 -6.0931
39 1 12.7687 42.9761 -6.38952
40 1 12.1226 42.3903 -6.80322
41 1 11.2743 42.5892 -7.17442
42 1 11.303 43.5533 -7.19836
43 1 11.3275 44.3063 -6.70739
44 1 11.1273 44.3255 -5.74934
45 1 10.656 44.9539 -6.32488
46 1 10.1653 45.2072 -7.15225
47 1 9.8062 45.8789 -6.58095
48 1 8.96931 46.2211 -6.26287
49 1 8.1415 46.4891 -6.60205
50 1 8.42482 47.3692 -6.70578
51 1 7.51545 47.3323 -6.9794
52 1 7.73753 47.7377 -7.84015
53 1 7.45455 47.6485 -8.69255
54 1 7.09289 47.7698 -9.58535
55 1 6.72407 47.4587 -10.3789
56 1 6.52209 46.5196 -10.2571
57 1 5.69693 46.6468 -9.81622
58 1 4.82486 46.473 -9.40069
59 1 4.72353 45.5254 -9.35928
60 1 3.94398 45.3825 -8.83867
61 1 3.01513 45.7455 -8.93782
62 1 2.14489 45.715 -9.32308
63 1 1.97074 45.6648 -8.404
64 1 2.05249 44.7925 -8.55298
ITEM: TIMESTEP
1260000
ITEM: NUMBER OF ATOMS
64
ITEM: BOX BOUNDS mm mm mm
-3.2000000000000000e+01 3.2000000000000000e+01
-3.2000000000000000e+01 4.6620378262763076e+01
-3.2000000000000000e+01 3.2000000000000000e+01
ITEM: ATOMS id type x y z
1 1 15.2199 45.8563 -14.4926
2 1 15.4066 45.103 -15.0522
3 1 15.2149 44.2747 -14.7221
4 1 14.8485 43.4842 -15.0772
5 1 14.2593 43.4948 -15.8129
6 1 13.7577 44.1043 -16.3342
7 1 12.9408 44.2688 -15.9409
8 1 13.0145 44.5587 -15.0041
9 1 13.3171 44.1731 -14.2679
10 1 13.1207 44.9521 -13.7231
11 1 13.8973 45.4746 -13.4694
12 1 13.7899 45.2329 -12.5907
13 1 14.5658 45.0248 -12.1211
14 1 14.735 44.136 -11.7932
15 1 14.5116 43.2144 -11.9096
16 1 15.3209 43.011 -12.3447
17 1 15.7457 42.901 -11.5427
18 1 16.1057 42.6235 -10.7826
19 1 15.6957 42.9205 -9.98201
20 1 15.1511 42.437 -9.369
21 1 15.4704 41.9607 -8.5282
22 1 16.3775 41.7444 -8.43574
23 1 17.3093 41.5706 -8.37492
24 1 17.0734 42.0657 -7.60666
25 1 17.0966 42.9388 -7.95765
26 1 16.3068 43.3266 -7.47089
27 1 16.7031 44.082 -7.88901
28 1 17.6367 44.177 -7.66803
29 1 17.4203 44.8501 -8.39047
30 1 16.7876 45.4621 -8.65898
31 1 17.2393 46.0352 -9.2194
32 1 17.1015 46.83 -8.73662
33 1 16.9546 46.3799 -7.96106
34 1 16.9707 45.8207 -7.21648
35 1 16.1625 45.6831 -7.66293
36 1 15.3741 46.1301 -7.54809
37 1 15.1229 46.4622 -8.39435
38 1 15.3566 45.9332 -9.13437
39 1 15.0044 45.3224 -9.7721
40 1 14.2151 45.8631 -9.82795
41 1 13.4719 45.2861 -9.5431
42 1 14.0386 44.664 -9.20652
43 1 13.1894 44.5217 -8.9016
44 1 13.1463 43.6386 -9.2418
45 1 12.395 43.1758 -9.52337
46 1 12.947 42.4731 -9.80272
47 1 12.3682 41.7572 -9.9732
48 1 11.7813 41.5081 -10.6386
49 1 11.3421 40.9118 -10.1289
50 1 10.7812 40.1115 -10.1937
51 1 10.2386 39.8956 -10.9073
52 1 10.3844 39.0513 -10.4983
53 1 9.63879 39.1588 -9.92755
54 1 9.35019 38.9351 -10.8284
55 1 8.61088 38.374 -10.9334
56 1 8.22474 39.1597 -11.226
57 1 7.8682 39.9754 -10.7886
58 1 8.0145 40.8762 -11.0818
59 1 8.62944 41.5142 -10.8559
60 1 8.62881 41.3579 -11.7932
61 1 8.54232 41.789 -12.6157
62 1 7.68208 41.6411 -13.0504
63 1 6.91138 41.6473 -13.5784
64 1 6.26679 42.2295 -13.1246
ITEM: TIMESTEP
1270000
ITEM: NUMBER OF ATOMS
64
ITEM: BOX BOUNDS mm mm mm
-3.2000000000000000e+01 3.2000000000000000e+01
-3.2000000000000000e+01 4.4537965040670230e+01
-3.2000000000000000e+01 3.2000000000000000e+01
ITEM: ATOMS id type x y z
1 1 23.4411 44.1148 -13.7498
2 1 23.2876 43.5287 -13.0558
3 1 23.4074 43.171 -12.1859
4 1 23.4148 43.5719 -11.3195
5 1 22.8389 43.0991 -10.707
6 1 22.4479 42.4336 -10.2202
7 1 22.2766 42.1892 -11.1341
8 1 21.4004 42.6403 -11.1938
9 1 20.5092 42.768 -11.374
10 1 20.2487 42.305 -12.1194
11 1 19.8283 41.4845 -11.8549
12 1 18.9825 41.5011 -12.3335
13 1 18.6963 41.237 -11.5045
14 1 18.5498 40.8101 -10.6757
15 1 17.908 41.297 -10.209
16 1 18.0883 42.0991 -9.81286
17 1 17.9783 42.9437 -10.292
18 1 17.4115 42.8479 -11.0497
19 1 16.5494 42.6975 -10.9471
20 1 16.484 43.6898 -10.7975
21 1 16.2494 43.9718 -11.7005
22 1 16.0595 44.2549 -12.524
23 1 15.1688 44.5294 -12.6574
24 1 14.6849 43.7302 -12.2556
25 1 14.373 43.9863 -11.4366
26 1 14.9833 44.4432 -10.9041
27 1 14.6007 44.2593 -10.0317
28 1 13.8737 44.1052 -9.49422
29 1 12.9719 43.8484 -9.42638
30 1 12.3492 44.5391 -9.14786
31 1 11.5652 44.2535 -9.43986
32 1 11.4874 43.4967 -8.91461
33 1 10.5386 43.6212 -8.77296
34 1 10.4978 42.6897 -8.97277
35 1 10.858 42.5443 -8.1036
36 1 11.3257 41.9849 -7.47652
37 1 10.8964 41.6917 -6.75482
38 1 11.421 40.905 -6.69612
39 1 11.0779 40.6193 -7.51389
40 1 11.4351 40.0684 -8.20747
41 1 10.5133 40.2129 -8.52038
42 1 10.2824 40.8693 -9.08835
43 1 11.0956 40.5957 -9.45561
44 1 11.5741 40.1035 -10.0798
45 1 11.1937 39.3799 -10.5621
46 1 11.3713 39.0803 -11.4572
47 1 10.8476 39.0094 -12.2336
48 1 9.94038 39.0638 -11.9021
49 1 10.2629 39.951 -11.8633
50 1 9.81315 39.7096 -11.0975
51 1 9.32882 38.9408 -10.8704
52 1 8.95057 39.8053 -10.5422
53 1 8.07947 39.6303 -10.2706
54 1 7.70574 38.8539 -9.9394
55 1 7.23245 38.677 -10.7293
56 1 7.34869 38.9321 -11.6515
57 1 7.14919 39.2149 -12.5061
58 1 6.27686 38.8784 -12.4812
59 1 6.37145 38.7459 -11.4981
60 1 5.86562 37.9433 -11.6233
61 1 5.71826 37.2944 -10.984
62 1 5.73238 36.74 -11.7428
63 1 5.13013 36.5514 -12.5359
64 1 4.37967 35.9951 -12.4072
ITEM: TIMESTEP
1280000
ITEM: NUMBER OF ATOMS
64
ITEM: BOX BOUNDS mm mm mm
-3.2000000000000000e+01 3.2000000000000000e+01
-3.2000000000000000e+01 4.6694557236026426e+01
-3.2000000000000000e+01 3.2000000000000000e+01
ITEM: ATOMS id type x y z
1 1 19.6493 43.6768 -10.7437
2 1 19.9485 44.3343 -10.1236
3 1 20.3863 45.143 -10.3815
4 1 20.8934 45.9507 -10.7635
5 1 20.6636 46.349 -9.90134
6 1 21.5573 46.6598 -9.93471
7 1 21.9537 45.9577 -10.288
8 1 22.3662 45.7379 -9.50809
9 1 22.4406 45.4093 -8.6019
10 1 21.8164 45.6706 -7.86211
11 1 21.0756 46.0095 -7.30525
12 1 20.2084 46.4644 -7.3267
13 1 19.4707 45.9558 -7.14435
14 1 18.9531 46.7402 -7.10596
15 1 18.2737 46.1189 -7.33538
16 1 17.6206 45.7439 -6.76597
17 1 17.1086 45.0003 -7.17464
18 1 17.413 44.3919 -6.51677
19 1 18.0494 44.2781 -7.25784
20 1 18.67 43.8396 -7.78077
21 1 18.2136 42.9989 -7.78316
22 1 17.7807 42.2175 -8.01389
23 1 16.8545 42.0372 -8.12295
24 1 16.2226 42.4643 -8.7123
25 1 15.6015 42.5319 -9.41428
26 1 14.8775 42.9338 -10.0341
27 1 15.376 43.7048 -10.2456
28 1 15.4677 43.5176 -11.1618
29 1 16.0379 43.9843 -11.7328
30 1 16.14 43.135 -12.0657
31 1 16.4326 42.2425 -12.249
32 1 16.5033 41.3114 -12.4872
33 1 15.6572 41.0847 -12.2073
34 1 15.3297 40.2144 -11.9401
35 1 15.2818 40.6352 -11.0693
36 1 14.6617 41.1434 -10.6346
37 1 13.8273 41.5157 -10.8795
38 1 13.7743 42.4505 -10.9403
39 1 13.2493 42.4316 -10.1842
40 1 13.5518 41.5982 -9.78162
41 1 13.5051 40.7811 -9.35515
42 1 12.9454 40.3181 -8.71955
43 1 13.6533 39.7244 -8.74543
44 1 13.0198 39.3484 -9.28947
45 1 12.2916 38.766 -9.52662
46 1 11.7323 38.9241 -8.7814
47 1 11.4616 38.8013 -7.89613
48 1 10.6899 39.1799 -8.26852
49 1 9.81628 38.9928 -8.65832
50 1 9.30775 38.5051 -7.97793
51 1 10.1939 38.1333 -7.94291
52 1 10.3281 37.9512 -7.02107
53 1 10.3895 37.0052 -6.91326
54 1 10.048 36.4418 -7.69688
55 1 10.1154 35.739 -8.32478
56 1 10.5561 35.1416 -7.66989
57 1 10.2769 34.3296 -7.2963
58 1 10.877 33.5774 -7.40089
59 1 11.612 33.0802 -7.74579
60 1 12.0114 32.3481 -8.22245
61 1 12.1079 32.0363 -7.35628
62 1 12.3366 32.6754 -6.72357
63 1 11.8701 32.932 -5.94365
64 1 11.343 32.9496 -5.13728
ITEM: TIMESTEP
1290000
ITEM: NUMBER OF ATOMS
64
ITEM: BOX BOUNDS mm mm mm
-3.2000000000000000e+01 3.2000000000000000e+01
-3.2000000000000000e+01 4.6863412950924783e+01
-3.2000000000000000e+01 3.2000000000000000e+01
ITEM: ATOMS id type x y z
1 1 24.0903 44.4471 -12.814
2 1 24.0781 43.6027 -12.3926
3 1 23.4993 42.9761 -12.1232
4 1 22.615 42.7214 -11.9865
5 1 21.7241 42.9743 -12.1834
6 1 21.3225 42.5882 -11.4334
7 1 20.8532 41.896 -11.8592
8 1 20.6299 41.185 -11.2157
9 1 21.1341 41.7195 -10.7517
10 1 21.7363 41.3343 -11.3229
11 1 22.4093 41.2996 -10.643
12 1 22.1051 41.472 -9.77556
13 1 21.4593 42.1428 -9.39079
14 1 21.6385 42.25 -8.46087
15 1 21.0316 41.9603 -7.86386
16 1 20.6086 42.7248 -7.60756
17 1 19.7757 43.0664 -7.68132
18 1 20.2531 43.4526 -6.98622
19 1 20.6062 44.2703 -7.30304
20 1 19.7248 44.3595 -7.64507
21 1 20.0953 44.6241 -8.49298
22 1 19.4266 45.2045 -8.15129
23 1 19.7978 45.5117 -8.98065
24 1 20.4933 45.9877 -8.62334
25 1 19.7095 46.3961 -8.26691
26 1 19.0191 46.6367 -8.82529
27 1 18.1368 46.864 -8.70658
28 1 17.9339 46.0232 -9.01195
29 1 17.8179 45.1029 -8.94716
30 1 17.254 44.4664 -8.55961
31 1 16.7494 45.1855 -8.17451
32 1 17.1853 44.6977 -7.52652
33 1 17.1673 43.8017 -7.26634
34 1 17.5701 42.9989 -6.99507
35 1 17.7307 42.1253 -6.67971
36 1 17.6104 41.2741 -6.36395
37 1 18.1805 40.5294 -6.16831
38 1 18.5521 39.7693 -6.63077
39 1 17.7502 39.2476 -6.63885
40 1 17.0429 38.7653 -7.06188
41 1 16.9722 39.6319 -7.52928
42 1 17.2145 40.2146 -6.75029
43 1 17.2108 39.9718 -5.86813
44 1 16.3081 39.9173 -5.7949
45 1 16.1568 39.7931 -4.91509
46 1 15.2913 39.5709 -5.36308
47 1 14.4626 39.6924 -5.70374
48 1 14.6196 39.1988 -6.49025
49 1 14.9641 38.4313 -6.89261
50 1 15.4418 37.6853 -6.57596
51 1 15.1532 37.7638 -5.67566
52 1 14.2262 37.5157 -5.72223
53 1 13.6747 37.6867 -6.45654
54 1 13.3078 38.3369 -5.84195
55 1 13.0458 38.4068 -6.77329
56 1 12.1083 38.297 -6.92638
57 1 12.2438 37.3953 -7.14599
58 1 12.4166 36.6554 -7.63685
59 1 11.5531 36.4623 -7.53042
60 1 11.6464 35.6809 -7.07963
61 1 11.5385 34.9438 -6.51805
62 1 12.1013 34.5636 -5.88074
63 1 11.8523 34.0501 -5.15697
64 1 11.9606 33.245 -5.55317
ITEM: TIMESTEP
1300000
ITEM: NUMBER OF ATOMS
64
ITEM: BOX BOUNDS mm mm mm
-3.2000000000000000e+01 3.2000000000000000e+01
-3.2000000000000000e+01 4.8786807628609182e+01
-3.2000000000000000e+01 3.2000000000000000e+01
ITEM: ATOMS id type x y z
1 1 19.2756 43.3726 -11.6236
2 1 19.3449 44.1648 -12.1544
3 1 18.7406 44.7786 -11.9254
4 1 19.3756 45.4457 -11.9735
5 1 19.2252 46.1328 -12.5785
6 1 19.8692 46.2741 -11.8962
7 1 20.6174 45.7665 -12.2399
8 1 21.2549 46.3728 -12.5682
9 1 20.7795 47.1234 -12.4191
10 1 21.6574 47.4329 -12.5805
11 1 22.2879 47.0008 -11.9882
12 1 23.0639 46.5047 -11.7947
13 1 23.6488 46.2656 -11.0524
14 1 23.0886 46.8056 -10.5624
15 1 23.4715 47.6778 -10.5692
16 1 22.795 48.3376 -10.658
17 1 22.1399 48.8725 -10.2922
18 1 22.3186 48.705 -9.40787
19 1 21.506 48.3838 -9.05576
20 1 21.3669 47.4506 -8.84502
21 1 21.6278 46.5336 -8.84925
22 1 21.9206 45.6638 -8.99014
23 1 21.2907 45.5112 -8.33864
24 1 20.6084 44.8776 -8.26857
25 1 20.1925 44.0869 -8.05955
26 1 19.9692 44.5031 -7.2108
27 1 20.6032 44.286 -6.57299
28 1 20.6984 43.906 -5.68605
29 1 20.2553 44.2935 -4.90228
30 1 19.4875 43.9082 -5.35754
31 1 18.6619 43.5373 -5.70368
32 1 18.9088 43.469 -6.58818
33 1 18.4886 42.6258 -6.60229
34 1 18.4454 42.0383 -5.81466
35 1 18.9396 41.2489 -5.8422
36 1 18.6071 41.1627 -6.74633
37 1 18.9664 40.3506 -6.40796
38 1 19.4861 40.1307 -7.17088
39 1 19.0926 40.066 -8.07894
40 1 19.0895 39.5991 -8.91182
41 1 18.4647 38.9264 -8.64011
42 1 18.2227 38.1122 -8.22952
43 1 18.8595 37.5157 -8.58054
44 1 19.0678 36.6814 -9.09757
45 1 18.3783 36.3576 -8.59935
46 1 18.1921 36.0355 -9.42866
47 1 17.9012 35.3876 -10.0238
48 1 17.5295 35.2913 -10.9345
49 1 17.3423 36.0957 -11.3954
50 1 16.3891 36.2178 -11.4578
51 1 15.8039 35.6113 -11.766
52 1 15.0366 35.1573 -12.0152
53 1 14.2733 35.0304 -11.4475
54 1 13.805 34.8345 -10.6442
55 1 14.3544 35.3878 -10.0662
56 1 15.1149 35.9896 -10.2467
57 1 15.5553 35.4796 -9.56551
58 1 15.5055 36.4397 -9.39839
59 1 14.7803 36.8874 -8.97921
60 1 14.9404 36.0278 -8.6173
61 1 14.397 35.2873 -8.58946
62 1 13.8932 35.8798 -8.10621
63 1 13.2569 35.6088 -7.44323
64 1 12.6327 36.1097 -7.0269
ITEM: TIMESTEP
1310000
ITEM: NUMBER OF ATOMS
64
ITEM: BOX BOUNDS mm mm mm
-3.2000000000000000e+01 3.2000000000000000e+01
-3.2000000000000000e+01 4.4166942719674964e+01
-3.2000000000000000e+01 3.2000000000000000e+01
ITEM: ATOMS id type x y z
1 1 15.8245 42.0064 -15.788
2 1 15.0027 41.7822 -15.4432
3 1 15.3792 40.9466 -15.1414
4 1 16.1081 40.6596 -14.6593
5 1 15.6564 40.182 -13.9956
6 1 15.168 41.0057 -13.7279
7 1 14.1838 40.9936 -13.7255
8 1 14.0076 41.9254 -13.5925
9 1 12.989 41.8518 -13.7381
10 1 12.6376 42.3974 -14.4234
11 1 12.2808 42.7182 -13.5727
12 1 12.1353 42.0204 -13.0143
13 1 11.6836 41.7743 -12.2394
14 1 12.1818 42.055 -11.4852
15 1 12.6436 41.9425 -10.6781
16 1 13.1506 41.1585 -10.5904
17 1 14.1246 41.0452 -10.5243
18 1 13.8747 41.5782 -11.2561
19 1 14.8613 41.7144 -11.2904
20 1 15.7883 41.869 -11.3604
21 1 16.0738 42.7638 -11.2087
22 1 15.6402 43.2982 -10.5272
23 1 15.8675 44.1297 -10.2535
24 1 15.323 44.162 -9.49565
25 1 14.4676 43.764 -9.34573
26 1 13.7613 43.1807 -9.47469
27 1 13.33 43.7862 -8.90169
28 1 13.3417 43.591 -7.98873
29 1 13.7378 42.8874 -7.54112
30 1 13.4747 43.1744 -6.74659
31 1 12.5568 43.1695 -6.63879
32 1 12.133 42.5144 -7.16911
33 1 13.0657 42.2417 -7.15501
34 1 13.5695 41.487 -6.72822
35 1 13.9754 40.5689 -6.71231
36 1 13.6117 40.2428 -7.58043
37 1 14.3006 40.8627 -7.68984
38 1 14.6963 40.4414 -8.42008
39 1 15.638 40.4132 -8.32328
40 1 15.825 39.8697 -7.51715
41 1 15.7815 38.9232 -7.43497
42 1 15.356 38.2041 -7.83363
43 1 14.859 37.548 -8.29018
44 1 14.7076 36.7265 -8.6595
45 1 15.0392 36.5273 -7.80036
46 1 14.6421 35.7179 -7.56747
47 1 13.7921 35.4212 -7.85013
48 1 13.8381 35.1968 -8.71209
49 1 14.5041 34.5285 -8.57164
50 1 15.5389 34.459 -8.63767
51 1 15.0608 33.6239 -8.62971
52 1 15.5281 32.7921 -8.80742
53 1 15.4576 32.0022 -9.35813
54 1 16.4172 31.7806 -9.04147
55 1 16.6466 30.9909 -9.37005
56 1 16.3968 30.1226 -9.09747
57 1 17.2722 29.8978 -8.96719
58 1 17.2149 29.6369 -9.85792
59 1 17.4302 28.8646 -10.288
60 1 17.5017 27.9139 -10.1923
61 1 17.827 27.0058 -10.2858
62 1 17.207 26.9025 -9.6288
63 1 16.6621 26.2873 -9.18945
64 1 17.0939 25.9462 -8.46435
ITEM: TIMESTEP
1320000
ITEM: NUMBER OF ATOMS
64
ITEM: BOX BOUNDS mm mm mm
-3.2000000000000000e+01 3.2000000000000000e+01
-3.2000000000000000e+01 4.7191524355997814e+01