ITEM: TIMESTEP
3260000
ITEM: NUMBER OF ATOMS
64
ITEM: BOX BOUNDS mm mm mm
-5.6645026218978785e+01 3.2000000000000000e+01
-3.2000000000000000e+01 5.8966175142949524e+01
-3.2000000000000000e+01 4.5371614855370069e+01
ITEM: ATOMS id type x y z
1 1 -56.6362 58.9571 45.3639
2 1 -56.271 58.2736 44.8281
3 1 -55.9549 57.5178 44.2895
4 1 -55.6112 56.7747 43.8474
5 1 -55.2237 56.1072 43.3591
6 1 -54.6377 55.4434 43.0121
7 1 -53.8836 54.8821 42.6842
8 1 -53.1082 54.3311 42.4512
9 1 -52.2979 54.0575 42.0748
10 1 -51.4201 53.6894 41.8359
11 1 -50.6839 53.1839 41.4612
12 1 -50.1739 52.5272 40.9839
13 1 -49.7039 52.0071 40.3402
14 1 -49.1708 51.515 39.794
15 1 -48.6613 50.865 39.2388
16 1 -48.1825 50.3853 38.609
17 1 -47.9002 49.8653 37.9613
18 1 -47.6088 49.2673 37.3267
19 1 -47.1847 48.6113 36.8429
20 1 -46.8109 48.0269 36.1476
21 1 -46.5433 47.5856 35.2849
22 1 -46.3538 47.1151 34.4707
23 1 -46.1493 46.7354 33.6597
24 1 -45.8509 46.4841 32.7662
25 1 -45.6233 46.1152 31.9926
26 1 -45.3802 45.7313 31.1988
27 1 -45.2112 45.3252 30.3176
28 1 -45.1418 44.8333 29.5808
29 1 -45.0429 44.2497 28.8837
30 1 -45.0683 43.4668 28.2732
31 1 -45.0568 42.695 27.7943
32 1 -45.0008 41.9789 27.1893
33 1 -45.0227 41.2367 26.549
34 1 -44.9171 40.5079 25.8765
35 1 -44.735 39.8145 25.3085
36 1 -44.446 39.0737 24.82
37 1 -44.0471 38.3278 24.455
38 1 -43.9005 37.6429 23.8427
39 1 -43.6663 36.9613 23.1836
40 1 -43.4712 36.3061 22.5978
41 1 -43.1841 35.6888 21.9181
42 1 -43.1015 35.0753 21.2298
43 1 -43.1378 34.4576 20.5104
44 1 -43.1037 33.9897 19.605
45 1 -43.0368 33.5251 18.7528
46 1 -42.8141 33.1663 17.9193
47 1 -42.8434 32.9819 16.9826
48 1 -42.765 32.7549 16.0953
49 1 -42.7804 32.5283 15.1989
50 1 -42.8418 32.3311 14.2923
51 1 -42.9016 32.0868 13.3803
52 1 -42.9632 31.8367 12.4629
53 1 -42.9923 31.7041 11.5361
54 1 -43.0973 31.6399 10.5677
55 1 -43.1579 31.5198 9.6204
56 1 -43.3916 31.4013 8.71255
57 1 -43.6627 31.2794 7.86374
58 1 -44.1329 31.3997 7.07574
59 1 -44.7163 31.6501 6.38454
60 1 -45.2001 32.0139 5.70357
61 1 -45.7917 32.381 5.06622
62 1 -46.4135 32.8351 4.45086
63 1 -47.105 33.1662 3.94432
64 1 -47.7656 33.5751 3.34703
ITEM: TIMESTEP
3270000
ITEM: NUMBER OF ATOMS
64
ITEM: BOX BOUNDS mm mm mm
-5.2382945749194683e+01 3.2000000000000000e+01
-3.2000000000000000e+01 5.5581832968715197e+01
-3.2000000000000000e+01 4.8682239494930599e+01
ITEM: ATOMS id type x y z
1 1 -47.2503 55.5651 48.5632
2 1 -46.9142 55.2562 47.8341
3 1 -46.476 54.8421 47.1533
4 1 -45.9243 54.5723 46.3947
5 1 -45.3727 54.3089 45.668
6 1 -45.0297 54.2483 44.7809
7 1 -44.7958 54.162 43.8448
8 1 -44.4704 54.0336 42.9716
9 1 -44.1464 53.8417 42.0937
10 1 -44.0809 53.7052 41.1599
11 1 -43.8686 53.5608 40.2722
12 1 -43.4967 53.3448 39.3917
13 1 -43.3969 53.0214 38.538
14 1 -43.2828 52.7578 37.5929
15 1 -43.1898 52.3825 36.6523
16 1 -43.0425 52.0463 35.7601
17 1 -42.887 51.7614 34.8613
18 1 -42.7375 51.3655 34.0178
19 1 -42.5389 50.9317 33.1877
20 1 -42.3411 50.4922 32.3543
21 1 -42.2657 50.1142 31.5329
22 1 -42.1595 49.5703 30.7781
23 1 -42.1006 48.9306 30.0922
24 1 -41.853 48.2439 29.4997
25 1 -41.534 47.5115 28.9985
26 1 -41.3296 46.811 28.3976
27 1 -41.2434 46.1138 27.833
28 1 -41.1783 45.4187 27.2
29 1 -41.0215 44.6925 26.6394
30 1 -40.7881 44.0657 25.932
31 1 -40.5298 43.5235 25.2227
32 1 -40.3526 42.9355 24.5388
33 1 -40.1325 42.1881 23.9804
34 1 -40.0417 41.5009 23.4061
35 1 -40.0533 40.7732 22.7299
36 1 -40.0831 40.011 22.1836
37 1 -40.1264 39.2487 21.6317
38 1 -40.4034 38.5018 21.1428
39 1 -40.6486 37.7104 20.7188
40 1 -41.0524 36.9579 20.3486
41 1 -41.4264 36.1976 20.0305
42 1 -41.7074 35.3446 19.8064
43 1 -41.8999 34.5208 19.497
44 1 -42.2487 33.7269 19.0203
45 1 -42.4853 32.9438 18.5737
46 1 -42.7507 32.1427 18.1471
47 1 -43.1976 31.4723 17.602
48 1 -43.5586 30.7699 17.1209
49 1 -43.9906 30.1324 16.5815
50 1 -44.3724 29.484 16.0715
51 1 -44.6429 28.8296 15.459
52 1 -44.9677 28.2626 14.8013
53 1 -45.4002 27.7621 14.1715
54 1 -45.819 27.3913 13.4411
55 1 -46.2787 26.9851 12.7095
56 1 -46.7955 26.632 12.0195
57 1 -47.4339 26.3017 11.4282
58 1 -48.1744 26.0917 10.8634
59 1 -48.8345 25.833 10.3286
60 1 -49.3959 25.5801 9.61791
61 1 -50.0828 25.5096 9.00178
62 1 -50.7173 25.5079 8.35933
63 1 -51.4901 25.4102 7.80491
64 1 -52.3166 25.2615 7.36899
ITEM: TIMESTEP
3280000
ITEM: NUMBER OF ATOMS
64
ITEM: BOX BOUNDS mm mm mm
-4.9723221927314704e+01 3.2000000000000000e+01
-3.2000000000000000e+01 5.9849968789635568e+01
-3.2000000000000000e+01 4.5562329854681387e+01
ITEM: ATOMS id type x y z
1 1 -44.8135 58.2428 45.5279
2 1 -44.6761 58.8189 44.8243
3 1 -44.5929 59.2476 44.0076
4 1 -44.483 59.38 43.0399
5 1 -44.5081 59.5964 42.0764
6 1 -44.484 59.6799 41.1203
7 1 -44.3449 59.7778 40.1795
8 1 -44.3601 59.9114 39.2116
9 1 -44.2688 59.9315 38.2909
10 1 -44.113 59.8457 37.4001
11 1 -43.8829 59.6883 36.5226
12 1 -43.5799 59.4449 35.6447
13 1 -43.4965 59.1387 34.7636
14 1 -43.3931 58.7407 33.9153
15 1 -43.3343 58.2324 33.1198
16 1 -43.2779 57.6475 32.3562
17 1 -43.0773 57.1523 31.5599
18 1 -42.913 56.6402 30.7812
19 1 -42.6344 56.1051 30.0534
20 1 -42.4922 55.5811 29.2752
21 1 -42.4965 55.1802 28.392
22 1 -42.5794 54.6112 27.6118
23 1 -42.6079 54.0909 26.8749
24 1 -42.7727 53.5417 26.0568
25 1 -42.8926 53.002 25.1976
26 1 -43.0344 52.4621 24.3897
27 1 -43.1592 51.8485 23.6771
28 1 -43.5316 51.2046 23.0805
29 1 -43.8736 50.5561 22.5444
30 1 -44.215 49.7751 22.0994
31 1 -44.4948 49.0166 21.6205
32 1 -44.7251 48.131 21.3186
33 1 -45.0965 47.3178 20.9686
34 1 -45.4774 46.5621 20.4591
35 1 -45.9556 45.9537 19.8897
36 1 -46.3281 45.2764 19.2754
37 1 -46.7241 44.5613 18.7115
38 1 -47.0526 43.8376 18.1835
39 1 -47.413 43.1913 17.5402
40 1 -47.8739 42.6673 16.8949
41 1 -48.1458 41.9704 16.3929
42 1 -48.5931 41.2275 16.0137
43 1 -48.9645 40.4127 15.6424
44 1 -49.3315 39.5723 15.316
45 1 -49.7086 38.734 15.0335
46 1 -49.8784 37.8525 14.6904
47 1 -50.1557 37.0521 14.3996
48 1 -50.0391 36.1926 14.1706
49 1 -49.8986 35.3114 13.7343
50 1 -49.7435 34.3741 13.3572
51 1 -49.5506 33.5089 13.1264
52 1 -49.4328 32.6143 12.9229
53 1 -49.4291 31.6829 12.7828
54 1 -49.3214 30.7555 12.6897
55 1 -49.1705 29.7951 12.6462
56 1 -49.0629 28.8012 12.6513
57 1 -48.9448 27.8555 12.8775
58 1 -48.7372 27.0016 13.0038
59 1 -48.645 26.1228 13.2512
60 1 -48.463 25.136 13.4224
61 1 -48.2578 24.1813 13.371
62 1 -48.0596 23.3082 13.4099
63 1 -48.0131 22.3995 13.464
64 1 -48.2298 21.4925 13.4893
ITEM: TIMESTEP
3290000
ITEM: NUMBER OF ATOMS
64
ITEM: BOX BOUNDS mm mm mm
-5.3768650293790117e+01 3.2000000000000000e+01
-3.2000000000000000e+01 6.7810998981879607e+01
-3.2000000000000000e+01 4.5260739077531042e+01
ITEM: ATOMS id type x y z
1 1 -40.7872 67.8312 45.4407
2 1 -41.1378 67.1093 44.9026
3 1 -41.5048 66.4498 44.4279
4 1 -41.8155 65.7596 43.9178
5 1 -42.0413 64.9991 43.3757
6 1 -42.0601 64.2358 42.8335
7 1 -41.9774 63.5756 42.2117
8 1 -42.0404 62.9142 41.5167
9 1 -42.053 62.1933 40.8716
10 1 -42.1512 61.4512 40.2452
11 1 -42.3461 60.8204 39.5779
12 1 -42.6141 60.2277 38.8471
13 1 -42.7257 59.5203 38.2501
14 1 -42.7486 58.9042 37.554
15 1 -42.7852 58.2241 36.8964
16 1 -42.9835 57.6638 36.1361
17 1 -43.0692 57.2527 35.2869
18 1 -43.0823 56.7631 34.4878
19 1 -43.1686 56.2374 33.6036
20 1 -43.3289 55.8237 32.6955
21 1 -43.4706 55.5394 31.8626
22 1 -43.7676 55.1788 31.0622
23 1 -44.1193 54.7286 30.333
24 1 -44.7016 54.2929 29.7281
25 1 -45.3405 53.7686 29.1974
26 1 -45.8983 53.249 28.54
27 1 -46.2639 52.7254 27.849
28 1 -46.523 52.3385 27.0289
29 1 -46.6598 51.8522 26.2508
30 1 -46.6634 51.352 25.5035
31 1 -46.6262 50.772 24.7743
32 1 -46.775 50.1925 24.056
33 1 -46.8266 49.4108 23.5666
34 1 -46.98 48.5553 23.2112
35 1 -47.1484 47.657 22.9251
36 1 -47.262 46.7772 22.5945
37 1 -47.3477 45.9878 22.1496
38 1 -47.5373 45.2486 21.5956
39 1 -47.674 44.441 21.1012
40 1 -47.8127 43.6198 20.7159
41 1 -48.0274 42.7811 20.3817
42 1 -48.342 42.0178 19.9907
43 1 -48.7653 41.2095 19.5592
44 1 -49.2281 40.445 19.3192
45 1 -49.53 39.6024 19.1904
46 1 -49.804 38.7501 18.8998
47 1 -50.101 37.8325 18.5438
48 1 -50.4537 37.0223 18.2177
49 1 -50.77 36.2321 17.8311
50 1 -51.1753 35.4387 17.5063
51 1 -51.4922 34.6357 17.1512
52 1 -51.8207 33.8613 16.8624
53 1 -52.1101 33.1239 16.3384
54 1 -52.3926 32.3487 15.9041
55 1 -52.5515 31.4896 15.5281
56 1 -52.7507 30.5351 15.3427
57 1 -52.8645 29.5987 15.2703
58 1 -53.0019 28.6674 15.3078
59 1 -53.0021 27.6827 15.3866
60 1 -53.0955 26.7838 15.4568
61 1 -53.2141 25.8982 15.5774
62 1 -53.2628 24.956 15.5632
63 1 -53.3988 23.9968 15.6606
64 1 -53.5006 23.0785 15.4835
ITEM: TIMESTEP
3300000
ITEM: NUMBER OF ATOMS
64
ITEM: BOX BOUNDS mm mm mm
-4.9836758341505195e+01 3.2000000000000000e+01
-3.2000000000000000e+01 7.4846749798875379e+01
-3.2000000000000000e+01 3.9648176407150480e+01
ITEM: ATOMS id type x y z
1 1 -44.4572 74.8224 39.6332
2 1 -43.8868 74.1894 39.319
3 1 -43.4834 73.4408 38.9714
4 1 -43.1743 72.6147 38.6331
5 1 -42.6933 71.8955 38.2771
6 1 -42.324 71.0165 38.0395
7 1 -42.0259 70.0675 37.7504
8 1 -41.7692 69.1667 37.4343
9 1 -41.5121 68.2699 37.2126
10 1 -41.4287 67.3437 37.0975
11 1 -41.3396 66.426 36.9244
12 1 -41.0567 65.5514 36.707
13 1 -40.8712 64.6699 36.4906
14 1 -40.7141 63.7731 36.1458
15 1 -40.5764 62.8751 35.9143
16 1 -40.562 62.0363 35.5522
17 1 -40.7983 61.2257 35.0926
18 1 -41.0204 60.4992 34.5399
19 1 -41.2189 59.8143 33.9157
20 1 -41.4589 59.063 33.4013
21 1 -41.7156 58.2452 33.0229
22 1 -41.9381 57.5017 32.5365
23 1 -42.0875 56.6968 32.0898
24 1 -42.4515 56.0085 31.6219
25 1 -42.847 55.2976 31.1802
26 1 -43.2845 54.5915 30.7464
27 1 -43.8251 53.8548 30.5465
28 1 -44.3253 53.0326 30.3193
29 1 -44.7897 52.2602 29.943
30 1 -45.3161 51.6442 29.3941
31 1 -45.8253 51.0422 28.8671
32 1 -46.3657 50.5552 28.2204
33 1 -46.7697 49.957 27.6624
34 1 -47.0456 49.1329 27.1732
35 1 -47.2547 48.3853 26.6676
36 1 -47.2572 47.5885 26.1807
37 1 -47.4548 46.7636 25.7174
38 1 -47.5656 45.9885 25.1193
39 1 -47.725 45.3431 24.5361
40 1 -47.8318 44.6661 23.9186
41 1 -48.0086 44.0279 23.2615
42 1 -47.9625 43.3078 22.6558
43 1 -48.0159 42.4997 22.1846
44 1 -47.9533 41.7059 21.7295
45 1 -47.8028 40.8419 21.4157
46 1 -47.595 40.0097 21.1203
47 1 -47.4958 38.9907 20.9223
48 1 -47.4345 38.0578 20.7194
49 1 -47.4775 37.1347 20.5975
50 1 -47.4973 36.1905 20.4931
51 1 -47.4174 35.2294 20.4543
52 1 -47.4437 34.3234 20.6474
53 1 -47.4599 33.4029 20.7897
54 1 -47.543 32.4573 20.8831
55 1 -47.7047 31.5233 20.9453
56 1 -47.7718 30.5913 20.9696
57 1 -47.9733 29.6839 21.0823
58 1 -48.2168 28.8287 21.3397
59 1 -48.6293 27.9267 21.5114
60 1 -48.9423 27.1069 21.7381
61 1 -49.1846 26.2295 21.793
62 1 -49.3741 25.3351 21.6468
63 1 -49.7371 24.4876 21.6089
64 1 -49.8578 23.5787 21.8777
ITEM: TIMESTEP
3310000
ITEM: NUMBER OF ATOMS
64
ITEM: BOX BOUNDS mm mm mm
-4.8738777956947786e+01 3.2000000000000000e+01
-3.2000000000000000e+01 8.0185419178487450e+01
-3.2000000000000000e+01 3.9958216281280933e+01
ITEM: ATOMS id type x y z
1 1 -39.7334 80.1566 39.9386
2 1 -40.3188 79.5298 39.5925
3 1 -40.8229 78.812 39.3644
4 1 -41.3016 78.0588 39.1308
5 1 -41.761 77.2351 38.9466
6 1 -42.1444 76.4514 38.5818
7 1 -42.5562 75.6484 38.2905
8 1 -43.0024 74.875 37.9235
9 1 -43.3888 74.0283 37.6801
10 1 -43.8043 73.2094 37.3411
11 1 -44.0418 72.355 37.03
12 1 -44.2425 71.4305 36.9819
13 1 -44.2905 70.4563 37.0536
14 1 -44.2049 69.5348 37.2652
15 1 -44.1382 68.6131 37.2706
16 1 -44.2203 67.7026 37.3619
17 1 -44.2947 66.7362 37.4355
18 1 -44.5587 65.8485 37.4503
19 1 -44.7273 64.9397 37.2198
20 1 -44.9369 64.1241 36.873
21 1 -44.9455 63.1978 36.5179
22 1 -44.9449 62.3289 36.108
23 1 -44.9688 61.4237 35.8108
24 1 -44.9822 60.5982 35.369
25 1 -45.0702 59.8285 34.8441
26 1 -45.1223 59.0105 34.3882
27 1 -45.1801 58.1788 33.9751
28 1 -45.2475 57.2737 33.5892
29 1 -45.277 56.3919 33.2963
30 1 -45.3895 55.5707 32.9261
31 1 -45.7037 54.8042 32.4602
32 1 -46.1712 54.019 32.0596
33 1 -46.6644 53.3207 31.6546
34 1 -46.9865 52.5882 31.1326
35 1 -47.3448 51.8536 30.7182
36 1 -47.7391 51.1782 30.1006
37 1 -47.9268 50.4281 29.5393
38 1 -48.1322 49.6464 29.0066
39 1 -48.2475 48.8444 28.5337
40 1 -48.3287 48.0999 27.943
41 1 -48.4529 47.3001 27.4118
42 1 -48.5337 46.4855 26.9039
43 1 -48.6449 45.5898 26.5028
44 1 -48.7128 44.7327 26.1255
45 1 -48.6109 43.8783 25.5684
46 1 -48.3806 43.1552 25.1203
47 1 -47.9766 42.4258 24.5498
48 1 -47.4905 41.8018 24.0312
49 1 -47.0487 41.0356 23.5849
50 1 -46.5572 40.2768 23.3484
51 1 -46.052 39.4331 23.3393
52 1 -45.6723 38.6082 23.4378
53 1 -45.3294 37.6902 23.4767
54 1 -45.0258 36.8108 23.4541
55 1 -44.831 35.9314 23.6159
56 1 -44.6685 35.0254 23.4173
57 1 -44.5073 34.1165 23.3531
58 1 -44.3725 33.224 23.3457
59 1 -44.361 32.3353 23.2176
60 1 -44.5362 31.3647 23.2386
61 1 -44.6547 30.4342 23.3303
62 1 -44.8777 29.5508 23.3629
63 1 -45.1522 28.6103 23.4256
64 1 -45.2997 27.6897 23.5711
ITEM: TIMESTEP
3320000
ITEM: NUMBER OF ATOMS
64
ITEM: BOX BOUNDS mm mm mm
-4.9851517853991325e+01 3.2000000000000000e+01
-3.2000000000000000e+01 7.8700973200884022e+01
-3.2000000000000000e+01 3.5987886787541335e+01
ITEM: ATOMS id type x y z
1 1 -35.0666 78.6887 34.1441
2 1 -35.3364 77.7174 34.1714
3 1 -35.6197 76.7941 34.0807
4 1 -35.8892 75.9204 34.1714
5 1 -36.4313 75.1049 34.1252
6 1 -37.1207 74.4751 34.1134
7 1 -37.85 73.9287 34.0926
8 1 -38.5628 73.287 34.0716
9 1 -39.1995 72.5971 34.2712
10 1 -39.8372 71.9501 34.5387
11 1 -40.4957 71.2821 34.76
12 1 -40.9988 70.5062 35.0475
13 1 -41.5093 69.7903 35.2751
14 1 -42.082 69.0329 35.2613
15 1 -42.5949 68.2952 35.5377
16 1 -43.1477 67.5715 35.7712
17 1 -43.5681 66.7315 35.8984
18 1 -43.8612 65.8262 35.9698
19 1 -44.043 64.9475 35.7932
20 1 -44.3844 64.097 35.7752
21 1 -44.7843 63.2926 35.5661
22 1 -44.9493 62.471 35.1149
23 1 -45.1648 61.6855 34.6639
24 1 -45.3556 60.9507 34.1919
25 1 -45.6613 60.2416 33.6675
26 1 -45.9712 59.4808 33.1672
27 1 -46.0839 58.607 32.736
28 1 -46.2159 57.7544 32.4012
29 1 -46.4245 56.9155 31.9601
30 1 -46.5958 56.1088 31.5703
31 1 -46.7914 55.3238 31.0752
32 1 -46.9899 54.5781 30.5664
33 1 -47.1248 53.7208 30.1206
34 1 -47.4814 52.9436 29.7819
35 1 -47.8378 52.1539 29.4869
36 1 -48.0687 51.3067 29.2902
37 1 -48.2966 50.442 28.9029
38 1 -48.4492 49.5398 28.7683
39 1 -48.6493 48.6255 28.5714
40 1 -48.8361 47.7537 28.2369
41 1 -49.1108 46.8824 27.8049
42 1 -49.4079 46.1376 27.3137
43 1 -49.5955 45.3425 26.8204
44 1 -49.718 44.5099 26.3512
45 1 -49.7659 43.6971 25.8008
46 1 -49.8326 42.9379 25.2811
47 1 -49.8192 42.1669 24.7135
48 1 -49.7403 41.444 24.1393
49 1 -49.6021 40.7081 23.5793
50 1 -49.2622 39.9412 23.1501
51 1 -48.8196 39.2282 22.7033
52 1 -48.3242 38.4748 22.4474
53 1 -47.8586 37.771 22.0844
54 1 -47.3418 37.0279 21.7584
55 1 -46.8042 36.2327 21.5762
56 1 -46.1524 35.5312 21.3324
57 1 -45.5385 34.812 21.1746
58 1 -45.0425 34.0828 20.9149
59 1 -44.5069 33.3805 20.5499
60 1 -44.1405 32.6522 20.1422
61 1 -43.7484 31.981 19.6132
62 1 -43.2257 31.2479 19.3382
63 1 -42.6552 30.5533 19.026
64 1 -42.0698 29.8883 18.6651
ITEM: TIMESTEP
3330000
ITEM: NUMBER OF ATOMS
64
ITEM: BOX BOUNDS mm mm mm
-5.0595501391465987e+01 3.2000000000000000e+01
-3.2000000000000000e+01 8.5029252285960425e+01
-3.2000000000000000e+01 3.4008592345036078e+01
ITEM: ATOMS id type x y z
1 1 -43.7018 84.8513 34.3607
2 1 -43.8653 83.8808 34.2646
3 1 -43.9102 82.9431 34.1083
4 1 -43.9156 82.0253 33.8635
5 1 -43.8293 81.1202 33.6739
6 1 -43.7544 80.2107 33.4757
7 1 -43.6462 79.2723 33.3011
8 1 -43.5631 78.3388 33.1061
9 1 -43.4007 77.4723 32.89
10 1 -43.1412 76.599 32.638
11 1 -43.0389 75.6091 32.4999
12 1 -43.2219 74.7051 32.4523
13 1 -43.5485 73.8395 32.6785
14 1 -43.7521 72.8718 32.8878
15 1 -43.9572 71.9712 33.0489
16 1 -44.2288 71.0871 33.3141
17 1 -44.3992 70.1747 33.4757
18 1 -44.4649 69.2705 33.545
19 1 -44.352 68.342 33.5473
20 1 -44.1036 67.4306 33.6249
21 1 -43.7753 66.4602 33.6947
22 1 -43.558 65.486 33.7534
23 1 -43.3698 64.63 33.5436
24 1 -43.0133 63.8065 33.2894
25 1 -42.9037 62.9423 32.9269
26 1 -42.8416 62.0947 32.593
27 1 -42.9566 61.3179 32.0081
28 1 -42.9713 60.5584 31.4246
29 1 -43.0863 59.6997 31.0824
30 1 -43.0943 58.8243 30.7673
31 1 -43.1562 57.9747 30.4904
32 1 -43.0791 57.0958 30.2282
33 1 -43.1206 56.2941 29.8296
34 1 -43.0338 55.4229 29.615
35 1 -42.9824 54.5154 29.3959
36 1 -42.8672 53.5583 29.3145
37 1 -42.7611 52.6164 29.2224
38 1 -42.7172 51.6497 29.1822
39 1 -42.717 50.7342 29.0565
40 1 -42.6376 49.8573 28.7634
41 1 -42.3405 49.0512 28.2399
42 1 -42.057 48.3503 27.6653
43 1 -41.6878 47.6484 27.1219
44 1 -41.4418 46.8926 26.5943
45 1 -41.3229 46.1972 26.0242
46 1 -41.0719 45.5945 25.3624
47 1 -41.2274 45.0902 24.5842
48 1 -41.4444 44.7285 23.7217
49 1 -41.851 44.2911 23.0404
50 1 -42.374 43.7266 22.5202
51 1 -42.8251 43.1981 21.9181
52 1 -43.192 42.4767 21.3619
53 1 -43.702 41.7882 20.9518
54 1 -44.165 41.086 20.5316
55 1 -44.6146 40.297 20.236
56 1 -45.1914 39.5662 20.0593
57 1 -45.7489 38.9016 19.6785
58 1 -46.3502 38.2231 19.3434
59 1 -46.9655 37.4974 19.3286
60 1 -47.6305 36.9038 19.4147
61 1 -48.458 36.4594 19.6076
62 1 -49.3758 36.1682 19.7838
63 1 -50.2646 35.9856 19.9353
64 1 -51.1642 35.6877 19.966
ITEM: TIMESTEP
3340000
ITEM: NUMBER OF ATOMS
64
ITEM: BOX BOUNDS mm mm mm
-4.9874319694859196e+01 3.2000000000000000e+01
-3.2000000000000000e+01 8.4921102696691946e+01
-3.2000000000000000e+01 3.2000000000000000e+01
ITEM: ATOMS id type x y z
1 1 -39.9893 84.7377 31.5054
2 1 -40.1955 83.8867 31.2799
3 1 -40.3653 82.9322 31.2188
4 1 -40.3773 81.9331 31.1573
5 1 -40.2316 80.9929 30.9548
6 1 -39.9392 80.1182 30.8083
7 1 -39.4356 79.2591 30.757
8 1 -39.2268 78.358 30.5645
9 1 -39.18 77.4406 30.162
10 1 -39.3322 76.5962 29.7476
11 1 -39.2896 75.7387 29.3822
12 1 -39.3183 74.8391 29.104
13 1 -39.4004 73.9622 28.952
14 1 -39.5234 73.0749 28.7203
15 1 -39.7992 72.1852 28.5418
16 1 -40.1423 71.318 28.3138
17 1 -40.2944 70.4782 27.996
18 1 -40.4103 69.5767 27.8621
19 1 -40.6571 68.6942 27.8037
20 1 -40.8058 67.7601 27.6769
21 1 -40.759 66.8342 27.5201
22 1 -40.8044 65.9065 27.4408
23 1 -40.8674 65.013 27.2811
24 1 -41.0655 64.1282 27.2033
25 1 -41.2556 63.2608 27.1501
26 1 -41.2656 62.3139 26.9795
27 1 -41.2716 61.3746 26.7833
28 1 -41.4738 60.4784 26.813
29 1 -41.5484 59.5628 26.9024
30 1 -41.6907 58.5972 26.8215
31 1 -41.6843 57.6917 26.7505
32 1 -41.9469 56.8418 26.5752
33 1 -42.2549 55.9807 26.445
34 1 -42.587 55.0771 26.2823
35 1 -42.9441 54.225 26.0181
36 1 -43.2337 53.4157 25.7217
37 1 -43.7291 52.682 25.4532
38 1 -44.198 51.8689 25.2616
39 1 -44.6498 51.1479 24.9288
40 1 -45.0702 50.4111 24.5814
41 1 -45.4836 49.7337 24.1167
42 1 -45.9026 49.0897 23.4998
43 1 -46.3381 48.6549 22.8173
44 1 -46.7645 48.0455 22.2205
45 1 -47.3069 47.479 21.6696
46 1 -47.7477 46.8012 21.1301
47 1 -47.9213 46.0763 20.5768
48 1 -48.1194 45.2407 20.1508
49 1 -48.3347 44.4393 19.7395
50 1 -48.3478 43.5808 19.3319
51 1 -48.3755 42.7174 18.9898
52 1 -48.4433 41.8302 18.6596
53 1 -48.4629 41.131 18.078
54 1 -48.4442 40.3378 17.4579
55 1 -48.5904 39.5464 17.0395
56 1 -48.663 38.7277 16.6332
57 1 -48.796 37.8433 16.2873
58 1 -48.9626 36.954 16.095
59 1 -49.0122 36.0272 15.8298
60 1 -49.1784 35.136 15.6119
61 1 -49.4549 34.2297 15.3893
62 1 -49.5774 33.2928 15.1196
63 1 -49.6719 32.394 14.9708
64 1 -49.935 31.506 14.7615
ITEM: TIMESTEP
3350000
ITEM: NUMBER OF ATOMS
64
ITEM: BOX BOUNDS mm mm mm
-5.2621036654724001e+01 3.2000000000000000e+01
-3.2000000000000000e+01 8.2413619233055073e+01
-3.2000000000000000e+01 3.6046276383137602e+01
ITEM: ATOMS id type x y z
1 1 -40.3796 82.5617 35.8735
2 1 -40.2313 81.9214 35.2049
3 1 -40.1449 81.3148 34.4512
4 1 -39.933 80.8396 33.6952
5 1 -39.8185 80.2195 33.0175
6 1 -39.7137 79.5124 32.3958
7 1 -39.6451 78.8052 31.8169
8 1 -39.6653 77.8926 31.4386
9 1 -39.7775 77.0352 31.1107
10 1 -39.7558 76.1601 30.7327
11 1 -39.8239 75.3867 30.2862
12 1 -39.7438 74.535 30.0013
13 1 -39.7856 73.6928 29.6921
14 1 -39.9579 72.8481 29.2715
15 1 -40.0762 71.9996 28.879
16 1 -40.1033 71.1525 28.4198
17 1 -40.045 70.3623 27.9687
18 1 -40.0639 69.4975 27.6295
19 1 -40.2469 68.65 27.3172
20 1 -40.6385 67.8706 26.9504
21 1 -41.0915 67.0719 26.6895
22 1 -41.7631 66.3445 26.7251
23 1 -42.4636 65.7207 26.7454
24 1 -43.1817 65.0586 26.8005
25 1 -43.7596 64.3214 26.8418
26 1 -44.2441 63.4937 26.8584
27 1 -44.7195 62.6523 26.9048
28 1 -45.2206 61.8186 26.9635
29 1 -45.6824 61.0555 27.0497
30 1 -46.2509 60.256 27.1834
31 1 -46.79 59.4934 27.3316
32 1 -47.2505 58.6624 27.2815
33 1 -47.8815 57.931 27.1913
34 1 -48.3238 57.126 26.9839
35 1 -48.8995 56.4197 26.6252
36 1 -49.6136 55.7946 26.4313
37 1 -50.3429 55.2585 26.1616
38 1 -50.8728 54.5988 25.814
39 1 -51.2994 53.8095 25.5959
40 1 -51.7107 53.0236 25.2281
41 1 -51.9013 52.2622 24.7114
42 1 -51.78 51.4074 24.347
43 1 -51.7521 50.4926 24.0573
44 1 -51.6958 49.5776 23.8422
45 1 -51.805 48.6534 23.7164
46 1 -51.9864 47.7138 23.76
47 1 -52.0401 46.8025 23.4921
48 1 -52.0384 45.8441 23.2516
49 1 -52.224 45.0737 22.7182
50 1 -52.2671 44.4269 22.0648
51 1 -52.4682 43.7515 21.3958
52 1 -52.6336 43.1442 20.6812
53 1 -52.6899 42.6213 19.942
54 1 -52.7762 42.0389 19.1253
55 1 -52.7472 41.5384 18.3656
56 1 -52.7231 41.0065 17.5956
57 1 -52.5723 40.4261 16.866
58 1 -52.5323 39.7458 16.2677
59 1 -52.4563 39.0717 15.6143
60 1 -52.3349 38.5837 14.8173
61 1 -52.2488 38.036 14.0653
62 1 -52.2505 37.3611 13.4186
63 1 -52.3625 36.6863 12.7454
64 1 -52.3364 36.0807 12.0128
ITEM: TIMESTEP
3360000
ITEM: NUMBER OF ATOMS
64
ITEM: BOX BOUNDS mm mm mm
-5.9366180914616770e+01 3.2000000000000000e+01
-3.2000000000000000e+01 8.1524604187249579e+01
-3.2000000000000000e+01 3.4204518566658209e+01
ITEM: ATOMS id type x y z
1 1 -38.8536 81.4443 34.1971
2 1 -38.9074 80.4852 34.2384
3 1 -38.9631 79.561 34.1487
4 1 -38.8835 78.6468 34.0012
5 1 -39.0695 77.7185 33.6908
6 1 -39.2319 76.8556 33.5107
7 1 -39.4891 75.942 33.3708
8 1 -39.6254 75.0495 33.1968
9 1 -39.7976 74.1802 32.8689
10 1 -39.9363 73.3093 32.476
11 1 -40.2841 72.4671 32.1802
12 1 -40.5464 71.6339 31.8173
13 1 -40.7519 70.7649 31.586
14 1 -40.9434 69.8888 31.3054
15 1 -41.0196 68.9188 31.1513
16 1 -41.0385 67.9508 31.2027
17 1 -41.2102 67.0219 31.2059
18 1 -41.4184 66.121 31.3026
19 1 -41.6079 65.1715 31.3552
20 1 -42.0783 64.3641 31.4852
21 1 -42.5649 63.5785 31.5004
22 1 -43.1986 62.8971 31.6422
23 1 -43.8554 62.3168 31.353
24 1 -44.5233 61.7193 31.1474
25 1 -45.1488 61.1353 30.9177
26 1 -45.9025 60.5782 30.7192
27 1 -46.6995 60.0425 30.6188
28 1 -47.4766 59.4659 30.4848
29 1 -48.2234 58.9599 30.5359
30 1 -48.9852 58.4185 30.6001
31 1 -49.716 57.771 30.4434
32 1 -50.4589 57.1445 30.2876
33 1 -51.1028 56.423 29.9998
34 1 -51.6759 55.747 29.7221
35 1 -52.2435 55.1505 29.2975
36 1 -52.7145 54.554 28.7713
37 1 -53.1219 53.8374 28.2348
38 1 -53.4021 53.2661 27.5434
39 1 -53.5566 52.5377 26.9088
40 1 -53.5781 51.9128 26.2008
41 1 -53.8333 51.3281 25.4956
42 1 -54.1951 50.6721 24.8828
43 1 -54.6283 50.0458 24.3758
44 1 -54.9625 49.4961 23.7503
45 1 -55.3202 48.7418 23.1862
46 1 -55.8048 48.0754 22.6721
47 1 -56.2525 47.4432 22.1453
48 1 -56.6982 46.7729 21.633
49 1 -57.1111 45.9632 21.3276
50 1 -57.5379 45.2485 20.8489
51 1 -57.8919 44.502 20.3417
52 1 -58.0785 43.811 19.6714
53 1 -58.2737 43.0897 19.1174
54 1 -58.4033 42.5095 18.3717
55 1 -58.4498 42.0679 17.5176
56 1 -58.5678 41.7992 16.6055
57 1 -58.7122 41.3231 15.7933
58 1 -58.8667 40.85 14.9994
59 1 -58.9504 40.3505 14.2027
60 1 -58.9675 39.9612 13.368
61 1 -58.9579 39.7311 12.4399
62 1 -59.0952 39.5639 11.5229
63 1 -59.0994 39.3814 10.5891
64 1 -59.1959 39.0138 9.68159
ITEM: TIMESTEP
3370000
ITEM: NUMBER OF ATOMS
64
ITEM: BOX BOUNDS mm mm mm
-5.8371972348331923e+01 3.2000000000000000e+01
-3.2000000000000000e+01 8.2922205766163415e+01
-3.2000000000000000e+01 3.6079078168037299e+01
ITEM: ATOMS id type x y z
1 1 -42.564 82.781 36.5205
2 1 -43.0457 82.0597 36.2007
3 1 -43.4761 81.337 35.8795
4 1 -43.837 80.4753 35.6784
5 1 -44.2028 79.7398 35.2716
6 1 -44.3568 78.8311 34.9673
7 1 -44.645 77.9642 34.7991
8 1 -44.8631 77.0312 34.5433
9 1 -45.1172 76.2107 34.3485
10 1 -45.4224 75.3623 34.1599
11 1 -45.7101 74.5757 33.6833
12 1 -45.9759 73.803 33.1962
13 1 -46.1846 72.9152 32.9214
14 1 -46.4326 72.0085 32.7296
15 1 -46.7306 71.2308 32.4738
16 1 -47.2238 70.4457 32.2029
17 1 -47.8029 69.6795 32.1219
18 1 -48.3695 68.9587 31.9219
19 1 -48.7851 68.2021 31.5314
20 1 -49.291 67.4205 31.2783
21 1 -49.6885 66.5817 31.1189
22 1 -49.8483 65.6954 30.9785
23 1 -49.8283 64.7986 30.8661
24 1 -49.7438 63.9441 30.5182
25 1 -49.6582 63.0693 30.2542
26 1 -49.5139 62.1635 30.1755
27 1 -49.5208 61.2828 29.9901
28 1 -49.4169 60.3123 29.9956
29 1 -49.448 59.4354 29.684
30 1 -49.8597 58.5682 29.4498
31 1 -50.2195 57.749 29.1599
32 1 -50.6261 57.051 28.7554
33 1 -51.1207 56.3654 28.3637
34 1 -51.6401 55.7077 27.9459
35 1 -52.1122 54.9225 27.682
36 1 -52.6574 54.2286 27.4336
37 1 -53.2759 53.6193 27.1505
38 1 -53.742 52.8695 26.9029
39 1 -54.3044 52.3072 26.4006
40 1 -54.8843 51.7743 25.882
41 1 -55.4415 51.2211 25.366
42 1 -55.8776 50.6046 24.7957
43 1 -56.2531 49.9977 24.108
44 1 -56.5624 49.6098 23.3117
45 1 -56.793 49.1584 22.5431
46 1 -56.8915 48.564 21.8426
47 1 -56.9617 47.9155 21.1602
48 1 -57.173 47.3155 20.4782
49 1 -57.5507 46.7249 19.827
50 1 -57.6565 46.0442 19.2514
51 1 -57.8379 45.2741 18.7388
52 1 -57.9533 44.5489 18.1632
53 1 -57.9459 43.6887 17.6844
54 1 -57.856 42.9327 17.1773
55 1 -57.8422 42.188 16.5353
56 1 -57.807 41.5404 15.7892
57 1 -57.7807 40.9981 14.9958
58 1 -57.7547 40.4412 14.253
59 1 -57.6902 39.8195 13.524
60 1 -57.4434 39.304 12.7934
61 1 -57.0879 39.0192 11.9669
62 1 -56.8348 38.8547 11.1135
63 1 -56.4112 38.8289 10.2464
64 1 -55.905 38.957 9.4616
ITEM: TIMESTEP
3380000
ITEM: NUMBER OF ATOMS
64
ITEM: BOX BOUNDS mm mm mm
-5.7221582955557153e+01 3.2000000000000000e+01
-3.2000000000000000e+01 7.9075408412799717e+01
-3.2000000000000000e+01 3.7488909679122493e+01
ITEM: ATOMS id type x y z
1 1 -50.6342 79.3505 37.3613
2 1 -50.4906 78.6695 36.7134
3 1 -50.3421 78.1143 35.9394
4 1 -50.2936 77.4152 35.3042
5 1 -50.4581 76.6303 34.7817
6 1 -50.6673 75.9222 34.1711
7 1 -51.0984 75.3467 33.5818
8 1 -51.7242 74.7782 33.1136
9 1 -52.0455 74.0072 32.7377
10 1 -52.3507 73.1646 32.426
11 1 -52.4567 72.3543 32.0315
12 1 -52.7786 71.5104 31.6253
13 1 -52.7857 70.6707 31.1126
14 1 -52.7147 69.8509 30.6384
15 1 -52.4506 69.0637 30.2946
16 1 -51.9876 68.3363 29.921
17 1 -51.4501 67.5689 29.4457
18 1 -51.0714 66.7051 29.1641
19 1 -50.6411 65.834 28.883
20 1 -50.3817 64.9712 28.4966
21 1 -50.2064 64.0523 28.2064
22 1 -50.1359 63.151 27.9101
23 1 -50.2226 62.3078 27.6133
24 1 -50.3156 61.404 27.1984
25 1 -50.6327 60.5142 27.0247
26 1 -50.9645 59.6639 27.015
27 1 -51.4016 58.7772 26.8949
28 1 -51.6123 57.8687 26.6949
29 1 -51.9091 57.0449 26.3795
30 1 -52.1549 56.1506 26.1264
31 1 -52.5136 55.3196 25.8458
32 1 -52.8782 54.5041 25.533
33 1 -53.1936 53.6831 25.1357
34 1 -53.5784 52.8446 24.9136
35 1 -53.9532 52.0703 24.5932
36 1 -54.1198 51.2136 24.2627
37 1 -54.3073 50.4326 23.8245
38 1 -54.5818 49.693 23.2957
39 1 -54.8249 48.9776 22.6725
40 1 -55.0958 48.4783 21.893
41 1 -55.2688 47.9145 21.0854
42 1 -55.4133 47.2514 20.4523
43 1 -55.6861 46.6146 19.7852
44 1 -55.9163 45.9172 19.1126
45 1 -56.0297 45.2795 18.4673
46 1 -56.2001 44.5281 18.0085
47 1 -56.3829 43.7611 17.5287
48 1 -56.5806 43.0144 16.9892
49 1 -56.7837 42.2608 16.4553
50 1 -56.8689 41.4521 15.8918
51 1 -56.9538 40.6677 15.3067
52 1 -56.9554 39.7977 14.853
53 1 -56.98 38.9559 14.3504
54 1 -57.0224 38.1741 13.7909
55 1 -57.118 37.3175 13.4077
56 1 -57.1373 36.4165 13.0552
57 1 -56.8923 35.6433 12.5499
58 1 -56.7886 34.8211 12.1892
59 1 -56.6663 33.9586 11.8248
60 1 -56.602 33.0865 11.5003
61 1 -56.5647 32.1513 11.4214
62 1 -56.3593 31.2553 11.659
63 1 -56.1706 30.2971 11.7236
64 1 -56.1003 29.3848 11.7989
ITEM: TIMESTEP
3390000
ITEM: NUMBER OF ATOMS
64
ITEM: BOX BOUNDS mm mm mm
-5.7795157308109452e+01 3.2000000000000000e+01
-3.2000000000000000e+01 7.4544657242899930e+01
-3.2000000000000000e+01 4.1209342515308208e+01
ITEM: ATOMS id type x y z
1 1 -45.0487 74.501 41.0785
2 1 -45.6267 73.8466 40.8092
3 1 -46.2378 73.12 40.599
4 1 -46.7262 72.3014 40.4697
5 1 -47.1967 71.5053 40.2709
6 1 -47.6509 70.7368 39.8956
7 1 -48.0649 69.9817 39.5611
8 1 -48.4893 69.2363 39.1192
9 1 -48.9425 68.518 38.7288
10 1 -49.4305 67.7402 38.2774
11 1 -49.8138 67.0921 37.7277
12 1 -50.0137 66.4374 37.1253
13 1 -50.2149 65.8885 36.399
14 1 -50.4806 65.4265 35.5905
15 1 -50.7283 65.0224 34.8282
16 1 -51.2364 64.4562 34.2736
17 1 -51.7627 63.8367 33.7526
18 1 -52.2735 63.2212 33.3518
19 1 -52.827 62.5255 33.0556
20 1 -53.4771 61.8956 32.7799
21 1 -54.2192 61.3917 32.5019
22 1 -54.8057 60.8361 31.9666
23 1 -55.2896 60.2855 31.3345
24 1 -55.5854 59.8721 30.5677
25 1 -55.7734 59.4048 29.7318
26 1 -55.8395 58.7449 29.0086
27 1 -55.9315 58.1984 28.2146
28 1 -56.1077 57.7353 27.4101
29 1 -56.307 57.199 26.6914
30 1 -56.4846 56.6042 25.9363
31 1 -56.6507 55.8589 25.2483
32 1 -56.9638 55.1024 24.708
33 1 -57.1262 54.2387 24.3542
34 1 -57.1699 53.3895 23.9891
35 1 -57.0479 52.5318 23.5996
36 1 -56.9154 51.7289 23.1649
37 1 -56.8194 50.8791 22.8187
38 1 -56.7745 50.0252 22.4124
39 1 -57.074 49.1719 22.1463
40 1 -57.355 48.3247 21.8894
41 1 -57.4947 47.4322 21.6148
42 1 -57.6377 46.5194 21.3897
43 1 -57.7081 45.6331 21.0729
44 1 -57.7406 44.7195 20.7455
45 1 -57.7866 43.8527 20.3832
46 1 -57.7633 42.9496 19.9961
47 1 -57.7773 42.0565 19.7127
48 1 -57.6401 41.1874 19.3309
49 1 -57.5687 40.3331 18.8775
50 1 -57.409 39.4448 18.4963
51 1 -57.2766 38.6763 17.884
52 1 -57.1486 37.9702 17.241
53 1 -57.1573 37.2953 16.6043
54 1 -57.2524 36.5569 16.078
55 1 -57.3048 35.8697 15.4579
56 1 -57.3362 35.107 14.9262
57 1 -57.4193 34.3699 14.3394
58 1 -57.2749 33.7212 13.6851
59 1 -56.8049 33.0868 13.118
60 1 -56.4605 32.5036 12.4566
61 1 -55.995 31.8871 11.9819
62 1 -55.4611 31.1934 11.685
63 1 -55.0406 30.4094 11.3537
64 1 -54.6778 29.6742 10.9552
ITEM: TIMESTEP
3400000
ITEM: NUMBER OF ATOMS
64
ITEM: BOX BOUNDS mm mm mm
-5.7560808916070783e+01 3.2000000000000000e+01