ITEM: TIMESTEP
3500000
ITEM: NUMBER OF ATOMS
64
ITEM: BOX BOUNDS mm mm mm
-7.0999001145113013e+01 3.2000000000000000e+01
-3.2000000000000000e+01 5.9907776158517230e+01
-3.2000000000000000e+01 3.6389691497628633e+01
ITEM: ATOMS id type x y z
1 1 -70.9887 44.2092 11.2969
2 1 -70.9248 43.4925 11.9239
3 1 -70.7775 43.0298 12.7042
4 1 -70.4551 42.5693 13.5036
5 1 -70.3885 42.3599 14.4312
6 1 -70.2635 42.1086 15.3246
7 1 -70.3788 41.7623 16.1555
8 1 -70.6665 41.5662 17.0282
9 1 -70.8032 41.4248 17.9305
10 1 -70.8505 40.8418 18.7742
11 1 -70.8386 40.2734 19.5477
12 1 -70.7696 39.744 20.318
13 1 -70.4838 39.3498 21.1129
14 1 -70.2966 38.9801 21.9683
15 1 -69.7631 38.6548 22.6528
16 1 -68.9768 38.4874 23.129
17 1 -68.2551 38.3473 23.6721
18 1 -67.479 38.1637 24.2252
19 1 -66.6682 38.151 24.7152
20 1 -66.0677 37.9859 25.3868
21 1 -65.2744 37.9102 25.8937
22 1 -64.4609 37.8922 26.4142
23 1 -63.6692 38.0454 26.882
24 1 -62.8995 38.2367 27.3711
25 1 -62.1709 38.563 27.8345
26 1 -61.514 38.9701 28.4133
27 1 -60.9446 39.3896 29.1468
28 1 -60.3339 39.4862 29.8091
29 1 -59.7655 39.8644 30.464
30 1 -59.2738 40.3218 31.0868
31 1 -58.6007 40.8188 31.4959
32 1 -57.8031 41.2772 31.8286
33 1 -57.1889 41.828 32.2209
34 1 -56.6619 42.4723 32.7639
35 1 -56.3291 43.1325 33.288
36 1 -55.8493 43.7386 33.7327
37 1 -55.3754 44.3575 34.3161
38 1 -54.8245 44.9072 34.7553
39 1 -54.3222 45.665 34.8219
40 1 -53.8782 46.4722 34.5169
41 1 -53.4981 47.3484 34.5801
42 1 -52.9277 48.1442 34.768
43 1 -52.3109 48.8411 34.7551
44 1 -51.7662 49.5896 34.5779
45 1 -50.9173 49.951 34.5902
46 1 -49.9998 50.1396 34.5822
47 1 -49.1386 50.2652 35.0046
48 1 -48.3011 50.312 35.4534
49 1 -47.4592 50.5057 35.8432
50 1 -46.6369 50.7917 36.2529
51 1 -45.7767 51.1995 36.3542
52 1 -45.0149 51.7063 36.3829
53 1 -44.3064 52.3985 36.279
54 1 -43.8642 53.1717 36.0092
55 1 -43.2916 53.847 35.6502
56 1 -42.8338 54.4979 35.1531
57 1 -42.5368 55.1411 34.5719
58 1 -42.2723 55.7479 33.9464
59 1 -42.1891 56.5347 33.3579
60 1 -42.1435 57.2868 32.7434
61 1 -42.1324 57.9576 32.0709
62 1 -42.028 58.6002 31.4073
63 1 -41.9618 59.2801 30.8004
64 1 -41.9295 59.8986 30.0556
ITEM: TIMESTEP
3510000
ITEM: NUMBER OF ATOMS
64
ITEM: BOX BOUNDS mm mm mm
-7.8048410238928824e+01 3.2000000000000000e+01
-3.2000000000000000e+01 5.7646020933293350e+01
-3.2000000000000000e+01 3.6692538172961967e+01
ITEM: ATOMS id type x y z
1 1 -77.9185 35.3751 18.2613
2 1 -77.0957 35.2645 18.6321
3 1 -76.2256 35.0762 19.0269
4 1 -75.4645 34.7625 19.464
5 1 -74.6616 34.4517 19.9195
6 1 -73.9236 34.5069 20.4652
7 1 -73.1164 34.6404 20.8471
8 1 -72.314 34.8754 21.2773
9 1 -71.5151 34.8871 21.7691
10 1 -70.7799 34.923 22.364
11 1 -69.9747 35.0251 22.8573
12 1 -69.1642 35.2295 23.3401
13 1 -68.5585 35.4947 23.9482
14 1 -68.0439 36.0442 24.4582
15 1 -67.3993 36.6127 24.8752
16 1 -66.8013 37.292 25.1775
17 1 -66.3955 37.947 25.6874
18 1 -65.7223 38.3915 26.2028
19 1 -64.9323 38.6891 26.6557
20 1 -64.0764 38.8984 27.0839
21 1 -63.3353 39.244 27.5224
22 1 -62.4069 39.4135 27.6317
23 1 -61.4806 39.467 27.5585
24 1 -60.5708 39.5774 27.4316
25 1 -59.6775 39.7665 27.3595
26 1 -58.8858 40.3072 27.4725
27 1 -58.052 40.6387 27.5831
28 1 -57.2544 41.0845 27.9966
29 1 -56.6963 41.3847 28.6626
30 1 -56.1578 41.7465 29.3352
31 1 -55.4771 42.3545 29.6018
32 1 -54.8857 43.1075 29.8595
33 1 -54.4559 43.8452 30.2095
34 1 -54.0653 44.6704 30.1669
35 1 -53.3765 45.302 29.9467
36 1 -52.5874 45.7697 29.6247
37 1 -51.8127 46.1003 29.3352
38 1 -50.9538 46.4743 29.1517
39 1 -50.1881 46.9014 28.8298
40 1 -49.4361 47.4794 28.7862
41 1 -48.6226 47.8891 28.8903
42 1 -47.7292 48.188 29.0422
43 1 -46.8661 48.5283 29.0681
44 1 -46.073 48.953 29.2612
45 1 -45.2397 49.3369 29.4546
46 1 -44.4066 49.6394 29.7618
47 1 -43.8366 50.1858 30.2592
48 1 -43.2172 50.6322 30.7561
49 1 -42.5348 51.1259 31.2377
50 1 -41.9791 51.7286 31.6289
51 1 -41.3045 52.2416 32.0046
52 1 -40.5937 52.7508 32.3353
53 1 -39.8646 53.0608 32.8734
54 1 -39.113 53.3957 33.5086
55 1 -38.5506 53.8201 34.1771
56 1 -37.8978 54.1402 34.7503
57 1 -37.1333 54.3796 35.2434
58 1 -36.3265 54.6507 35.7776
59 1 -35.7626 55.1884 36.2406
60 1 -35.0262 55.6456 36.4632
61 1 -34.2154 56.0378 36.6907
62 1 -33.5784 56.6636 36.7533
63 1 -32.9018 57.2327 36.5203
64 1 -32.0404 57.6075 36.5501
ITEM: TIMESTEP
3520000
ITEM: NUMBER OF ATOMS
64
ITEM: BOX BOUNDS mm mm mm
-7.3388432831634731e+01 3.2000000000000000e+01
-3.2000000000000000e+01 5.9148280638010633e+01
-3.2000000000000000e+01 3.4681489690764565e+01
ITEM: ATOMS id type x y z
1 1 -72.8943 30.2141 21.2073
2 1 -72.7054 31.1005 21.6395
3 1 -72.6716 31.8736 22.199
4 1 -72.7438 32.7169 22.5629
5 1 -72.7655 33.6334 22.6917
6 1 -72.6299 34.5842 22.6517
7 1 -72.7242 35.5247 22.5432
8 1 -73.0541 36.4107 22.3805
9 1 -73.0376 37.3349 22.4557
10 1 -73.1626 38.2453 22.8099
11 1 -73.0949 39.1359 23.092
12 1 -72.8366 39.9206 23.5837
13 1 -72.4897 40.7199 23.9558
14 1 -71.9953 41.2845 24.5469
15 1 -71.4126 41.8499 25.0209
16 1 -70.7318 42.4413 25.373
17 1 -70.1296 43.138 25.5843
18 1 -69.5858 43.8285 25.6966
19 1 -69.0552 44.5867 25.6948
20 1 -68.3133 45.0977 25.741
21 1 -67.5002 45.6214 25.758
22 1 -66.6907 46.1611 25.7702
23 1 -65.8777 46.6188 26.0211
24 1 -65.0101 46.7836 26.0889
25 1 -64.128 46.9814 26.1113
26 1 -63.3041 47.404 25.9337
27 1 -62.5793 47.9314 25.7175
28 1 -61.8735 48.5112 25.4763
29 1 -61.2501 49.1046 25.2417
30 1 -60.5027 49.5911 24.9628
31 1 -59.7946 50.1397 24.7748
32 1 -58.9155 50.4824 24.6033
33 1 -58.0207 50.7368 24.5134
34 1 -57.0356 50.8473 24.5838
35 1 -56.1132 51.1014 24.6919
36 1 -55.2742 51.5607 24.8495
37 1 -54.4263 51.9223 24.9544
38 1 -53.5409 52.2464 25.2005
39 1 -52.732 52.7436 25.3849
40 1 -51.8804 53.1121 25.6433
41 1 -50.9715 53.1122 25.9485
42 1 -50.0538 53.1959 26.1275
43 1 -49.1275 53.3974 26.1567
44 1 -48.2791 53.8627 26.1103
45 1 -47.4869 54.4025 26.216
46 1 -46.7574 55.0409 26.2809
47 1 -46.0434 55.6022 26.5413
48 1 -45.3308 56.1193 26.7869
49 1 -44.5663 56.6702 26.9387
50 1 -43.8094 57.1287 27.2301
51 1 -43.0731 57.5623 27.5459
52 1 -42.263 57.9626 27.8454
53 1 -41.4829 58.3471 28.2212
54 1 -40.6307 58.7695 28.457
55 1 -39.892 59.2105 28.918
56 1 -39.2457 59.2653 29.6228
57 1 -38.6626 59.1267 30.352
58 1 -37.8716 59.0126 30.9269
59 1 -37.1128 58.9674 31.4101
60 1 -36.2448 58.8531 31.6895
61 1 -35.6978 58.4747 32.3287
62 1 -35.1911 58.0234 32.9556
63 1 -34.7123 57.5288 33.6152
64 1 -34.3415 56.994 34.2813
ITEM: TIMESTEP
3530000
ITEM: NUMBER OF ATOMS
64
ITEM: BOX BOUNDS mm mm mm
-7.8944702542991493e+01 3.2000000000000000e+01
-3.2000000000000000e+01 6.2242428304521354e+01
-3.2000000000000000e+01 3.3680972063635714e+01
ITEM: ATOMS id type x y z
1 1 -78.9339 35.4359 30.3752
2 1 -78.2819 35.6309 29.7241
3 1 -77.7261 35.8452 29.0016
4 1 -77.1226 35.9747 28.3479
5 1 -76.2857 36.1299 27.9059
6 1 -75.5672 36.4882 27.4
7 1 -74.8985 36.7946 26.8873
8 1 -74.3138 37.1047 26.1271
9 1 -73.6492 37.7051 25.6486
10 1 -73.0375 38.2715 25.1416
11 1 -72.4337 38.844 24.7256
12 1 -71.8915 39.599 24.7567
13 1 -71.251 40.2807 24.9115
14 1 -70.6125 40.9099 25.1798
15 1 -69.9601 41.5716 25.2634
16 1 -69.241 42.1886 25.4573
17 1 -68.6579 42.892 25.6991
18 1 -68.4494 43.6408 26.1558
19 1 -68.1925 44.4711 26.6824
20 1 -67.8685 45.2019 27.1158
21 1 -67.3617 45.91 27.4676
22 1 -66.8257 46.6124 27.7
23 1 -66.2717 47.2819 28.0601
24 1 -65.6308 47.9995 28.3422
25 1 -65.0798 48.8341 28.444
26 1 -64.4089 49.4681 28.4021
27 1 -63.6301 50.0131 28.511
28 1 -62.9581 50.7237 28.7061
29 1 -62.4361 51.49 28.8452
30 1 -61.7636 52.1319 29.0877
31 1 -61.0119 52.6469 29.2461
32 1 -60.1855 53.1004 29.1291
33 1 -59.415 53.5891 28.8363
34 1 -58.6241 54.127 28.7567
35 1 -57.7841 54.5389 28.8776
36 1 -56.9309 54.8442 29.0908
37 1 -56.0251 55.1995 29.1355
38 1 -55.1248 55.4693 29.1755
39 1 -54.1517 55.6661 29.2301
40 1 -53.2224 55.9512 29.2371
41 1 -52.3128 55.9377 29.267
42 1 -51.377 56.047 29.1728
43 1 -50.4663 56.1466 29.0701
44 1 -49.5718 56.3186 29.2183
45 1 -48.9547 56.4083 29.916
46 1 -48.2589 56.6152 30.4507
47 1 -47.3951 56.7401 30.8673
48 1 -46.5444 56.8957 31.2042
49 1 -45.6001 56.9634 31.4566
50 1 -44.7802 57.3173 31.7122
51 1 -43.9152 57.7349 31.8074
52 1 -43.0538 58.1483 31.8045
53 1 -42.3313 58.7027 32.0378
54 1 -41.4822 59.0137 32.2342
55 1 -40.6474 59.2499 32.6767
56 1 -39.8606 59.6958 33.0896
57 1 -39.0579 60.1093 33.2487
58 1 -38.2667 60.6307 33.4785
59 1 -37.4092 61.1135 33.4733
60 1 -36.6734 61.6471 33.3404
61 1 -35.8197 61.9987 33.1184
62 1 -34.9269 62.2235 32.8175
63 1 -33.993 62.2287 32.6493
64 1 -33.0844 62.0945 32.4007
ITEM: TIMESTEP
3540000
ITEM: NUMBER OF ATOMS
64
ITEM: BOX BOUNDS mm mm mm
-8.0397868908650267e+01 3.2000000000000000e+01
-3.2000000000000000e+01 7.0356404610407978e+01
-3.2000000000000000e+01 3.5624128353052342e+01
ITEM: ATOMS id type x y z
1 1 -80.3073 41.0618 35.1522
2 1 -79.4438 41.2716 35.1997
3 1 -78.529 41.4445 35.1756
4 1 -77.6493 41.7726 35.0305
5 1 -76.6898 41.7894 34.8755
6 1 -75.8064 41.8481 34.5605
7 1 -74.936 41.8069 34.3077
8 1 -74.1412 42.1175 34.015
9 1 -73.407 42.4435 33.5676
10 1 -72.656 42.9535 33.2328
11 1 -71.9848 43.3006 32.7279
12 1 -71.2479 43.5485 32.3167
13 1 -70.5138 43.8592 31.8776
14 1 -69.7353 44.2389 31.4302
15 1 -69.0492 44.7063 31.1259
16 1 -68.3292 45.114 30.7516
17 1 -67.5811 45.208 30.2557
18 1 -66.8554 45.5542 29.8417
19 1 -65.9894 45.7144 29.6113
20 1 -65.043 45.9359 29.4302
21 1 -64.2459 46.1948 29.1267
22 1 -63.4504 46.6867 29.0268
23 1 -62.7172 47.2915 28.9692
24 1 -62.093 47.9049 29.1653
25 1 -61.3517 48.5223 29.4027
26 1 -60.664 49.0591 29.7037
27 1 -59.8927 49.4449 30.152
28 1 -59.1686 49.9635 30.5633
29 1 -58.5212 50.5274 30.912
30 1 -57.8405 51.0895 31.2347
31 1 -57.0755 51.536 31.5175
32 1 -56.4062 52.1472 31.7232
33 1 -55.4788 52.3832 31.7556
34 1 -54.5761 52.507 31.6608
35 1 -53.7299 52.9025 31.6325
36 1 -52.8839 53.3151 31.5395
37 1 -51.992 53.6725 31.4578
38 1 -51.1043 53.8855 31.3316
39 1 -50.2651 54.1601 31.1698
40 1 -49.4458 54.5913 31.1991
41 1 -48.6613 55.1005 31.0886
42 1 -47.8578 55.639 31.0815
43 1 -47.2492 56.3268 31.0952
44 1 -46.6085 57.0029 30.9906
45 1 -45.9299 57.6322 30.8811
46 1 -45.3238 58.3439 30.8164
47 1 -44.7125 59.0158 30.503
48 1 -44.1107 59.7084 30.2821
49 1 -43.5245 60.4237 30.1374
50 1 -42.7786 60.998 29.8512
51 1 -41.9043 61.3642 29.837
52 1 -41.0907 61.8712 29.8054
53 1 -40.3122 62.2738 30.0486
54 1 -39.5007 62.7238 30.0363
55 1 -38.6681 63.3127 30.0508
56 1 -38.0568 63.952 29.7543
57 1 -37.5723 64.622 29.3182
58 1 -37.2802 65.3897 28.8723
59 1 -37.436 66.1051 28.2763
60 1 -37.439 66.7573 27.5623
61 1 -37.6944 67.5735 27.0716
62 1 -38.0257 68.4409 26.7687
63 1 -38.189 69.3959 26.5879
64 1 -38.3478 70.2677 26.3585
ITEM: TIMESTEP
3550000
ITEM: NUMBER OF ATOMS
64
ITEM: BOX BOUNDS mm mm mm
-7.5615791603764336e+01 3.2000000000000000e+01
-3.2000000000000000e+01 7.5761137732346640e+01
-3.2000000000000000e+01 4.2057851823525795e+01
ITEM: ATOMS id type x y z
1 1 -75.3987 50.4577 42.0873
2 1 -75.6349 50.1443 41.224
3 1 -75.4127 49.9995 40.336
4 1 -75.1324 49.9821 39.4121
5 1 -74.951 50.0176 38.5319
6 1 -74.9356 50.0593 37.5776
7 1 -74.8188 49.8534 36.6531
8 1 -74.5554 50.0346 35.7468
9 1 -74.0989 50.1354 34.9519
10 1 -73.4326 50.4467 34.3997
11 1 -72.6759 50.4336 33.8802
12 1 -71.9563 50.4179 33.2885
13 1 -71.117 50.7422 33.0673
14 1 -70.2819 50.8434 32.643
15 1 -69.3411 50.9951 32.5059
16 1 -68.4567 51.0816 32.1942
17 1 -67.5977 51.2925 31.9039
18 1 -66.659 51.3866 31.8699
19 1 -65.7201 51.5434 31.7017
20 1 -64.7497 51.5546 31.6097
21 1 -63.8342 51.4529 31.5412
22 1 -62.8846 51.2301 31.7904
23 1 -61.9171 51.2736 31.9236
24 1 -61.055 51.6447 31.9536
25 1 -60.1343 51.8534 31.9173
26 1 -59.1792 52.0568 32.0301
27 1 -58.3726 52.4486 32.1356
28 1 -57.5344 52.8691 31.9199
29 1 -56.7563 53.1715 31.5093
30 1 -55.8613 53.4001 31.1841
31 1 -55.0182 53.4227 30.8884
32 1 -54.1925 53.2729 30.4186
33 1 -53.3241 53.448 30.0374
34 1 -52.4244 53.5573 29.6651
35 1 -51.7022 54.0868 29.3008
36 1 -51.0369 54.7207 29.1903
37 1 -50.3185 55.2763 29.4047
38 1 -49.5793 55.8767 29.7472
39 1 -48.8732 56.4052 30.184
40 1 -48.3822 56.8824 30.7662
41 1 -47.9251 57.4796 31.3312
42 1 -47.4198 58.0807 31.8226
43 1 -46.5898 58.5638 32.11
44 1 -45.8502 59.033 32.4053
45 1 -45.128 59.5515 32.6051
46 1 -44.5691 60.2219 32.9229
47 1 -43.9908 60.9445 33.1032
48 1 -43.5903 61.7954 33.2972
49 1 -43.2171 62.6287 33.5709
50 1 -42.6415 63.3751 33.7004
51 1 -42.4264 64.2453 33.9345
52 1 -42.3411 65.2181 34.0083
53 1 -42.2564 66.1435 33.9607
54 1 -42.121 67.0569 33.8497
55 1 -42.0988 67.9709 34.1101
56 1 -42.156 68.9187 34.2145
57 1 -42.2482 69.8471 34.3143
58 1 -42.1881 70.6338 34.8194
59 1 -42.176 71.382 35.3454
60 1 -42.3027 72.2124 35.676
61 1 -42.4288 73.0963 35.9989
62 1 -42.5367 73.9639 36.1195
63 1 -42.6994 74.8823 36.3649
64 1 -42.9294 75.7483 36.6623
ITEM: TIMESTEP
3560000
ITEM: NUMBER OF ATOMS
64
ITEM: BOX BOUNDS mm mm mm
-7.8683110494333988e+01 3.2000000000000000e+01
-3.2000000000000000e+01 7.7322110353442000e+01
-3.2000000000000000e+01 3.8440302650116649e+01
ITEM: ATOMS id type x y z
1 1 -78.6915 44.8247 37.735
2 1 -77.9864 45.34 38.1143
3 1 -77.1775 45.838 38.2636
4 1 -76.3379 46.1807 38.4112
5 1 -75.4379 46.504 38.3235
6 1 -74.463 46.5353 38.2416
7 1 -73.5771 46.5593 37.8563
8 1 -72.7236 46.5998 37.5481
9 1 -71.9129 46.9311 37.0922
10 1 -71.2181 47.2355 36.5915
11 1 -70.3855 47.4033 36.1467
12 1 -69.556 47.7614 35.9385
13 1 -68.6745 48.0558 35.7989
14 1 -67.8231 48.4282 35.6169
15 1 -67.1208 48.9374 35.2322
16 1 -66.7128 49.4109 34.5473
17 1 -66.3033 49.847 33.8009
18 1 -65.7338 50.2628 33.1442
19 1 -64.9251 50.5542 32.5702
20 1 -64.1294 50.7036 32.0995
21 1 -63.4921 50.876 31.4338
22 1 -62.7973 50.9886 30.7902
23 1 -62.0599 51.1162 30.196
24 1 -61.2465 51.2656 29.6723
25 1 -60.4883 51.4939 29.2344
26 1 -59.6915 51.8716 28.8756
27 1 -58.7951 52.2403 28.7992
28 1 -57.9636 52.5745 28.6825
29 1 -57.1392 53.0313 28.7356
30 1 -56.3375 53.5733 28.6098
31 1 -55.557 54.157 28.5561
32 1 -54.851 54.7809 28.4812
33 1 -54.2618 55.5481 28.2177
34 1 -53.5337 56.19 28.1097
35 1 -52.7217 56.8243 27.9401
36 1 -51.8796 57.1961 27.6388
37 1 -51.0043 57.4487 27.6557
38 1 -50.1176 57.5588 27.9074
39 1 -49.2781 57.8726 28.2503
40 1 -48.4802 58.259 28.5249
41 1 -47.6441 58.5526 28.7457
42 1 -46.8814 59.0541 28.7149
43 1 -46.258 59.7536 28.8671
44 1 -45.8099 60.5441 29.0357
45 1 -45.1828 61.1723 29.3127
46 1 -44.5643 61.8854 29.5448
47 1 -43.8885 62.5766 29.6984
48 1 -43.2713 63.2345 29.8558
49 1 -42.7462 63.9969 29.9944
50 1 -42.1808 64.7447 30.0204
51 1 -41.8642 65.6736 30.0863
52 1 -41.7722 66.5499 30.288
53 1 -41.6473 67.4446 30.498
54 1 -41.4117 68.4018 30.5631
55 1 -41.2019 69.3621 30.7001
56 1 -40.9443 70.2661 30.9334
57 1 -40.6476 71.1225 31.1566
58 1 -40.444 72.0246 31.4154
59 1 -40.3124 72.9412 31.3476
60 1 -40.2627 73.7895 31.0773
61 1 -40.1387 74.6687 30.8296
62 1 -40.2087 75.5568 30.5444
63 1 -40.0736 76.4782 30.2251
64 1 -39.9957 77.4243 30.0537
ITEM: TIMESTEP
3570000
ITEM: NUMBER OF ATOMS
64
ITEM: BOX BOUNDS mm mm mm
-7.9104968068280726e+01 3.2000000000000000e+01
-3.2000000000000000e+01 7.7548358707961114e+01
-3.2000000000000000e+01 3.5868371266734613e+01
ITEM: ATOMS id type x y z
1 1 -79.4232 57.1767 34.9397
2 1 -78.5614 57.4835 34.9514
3 1 -77.6356 57.5345 35.011
4 1 -76.7043 57.3404 34.9732
5 1 -75.8347 57.1878 35.279
6 1 -75.1226 56.5395 35.3456
7 1 -74.322 56.0385 35.331
8 1 -73.4632 55.5511 35.1889
9 1 -72.712 55.1873 34.8042
10 1 -71.8219 54.8753 34.7244
11 1 -70.8962 54.8038 34.6267
12 1 -69.9465 54.7896 34.5226
13 1 -69.0282 54.7681 34.6284
14 1 -68.0822 54.8442 34.6759
15 1 -67.1216 54.8887 34.6194
16 1 -66.1681 55.049 34.7771
17 1 -65.2677 55.1512 34.8808
18 1 -64.3404 55.0434 34.6389
19 1 -63.4216 55.2254 34.4407
20 1 -62.5587 55.3051 34.1738
21 1 -61.6274 54.9899 34.0206
22 1 -60.802 54.6104 33.7989
23 1 -59.9339 54.3156 33.754
24 1 -59.0376 54.2482 33.4085
25 1 -58.1883 54.2269 33.1003
26 1 -57.3644 54.1489 32.6229
27 1 -56.5881 54.227 32.1443
28 1 -55.9888 54.4953 31.4152
29 1 -55.2624 54.8473 30.8854
30 1 -54.6392 55.3915 30.4105
31 1 -53.948 55.8593 29.869
32 1 -53.2298 56.23 29.3629
33 1 -52.5101 56.6389 28.935
34 1 -51.7322 57.1541 28.6238
35 1 -50.8577 57.4739 28.4976
36 1 -50.1571 58.0649 28.2974
37 1 -49.4576 58.5997 28.0393
38 1 -48.8062 59.3056 27.9378
39 1 -48.2663 60.0703 27.7922
40 1 -47.7701 60.6809 27.3776
41 1 -47.151 61.2975 26.976
42 1 -46.4119 61.7257 26.6094
43 1 -45.7088 62.347 26.3299
44 1 -44.961 62.7912 25.9237
45 1 -44.239 63.1964 25.4921
46 1 -43.6942 63.79 25.009
47 1 -43.0069 64.4261 25.0984
48 1 -42.5274 65.1074 25.5449
49 1 -42.1228 65.8118 26.0629
50 1 -41.6037 66.3507 26.5616
51 1 -41.136 67.0947 26.8599
52 1 -40.8399 67.862 27.2477
53 1 -40.5535 68.6592 27.704
54 1 -40.2262 69.5281 28.0503
55 1 -39.8964 70.3094 28.4101
56 1 -39.5477 71.1377 28.7215
57 1 -39.5207 71.9201 29.3118
58 1 -39.4974 72.7477 29.6554
59 1 -39.0575 73.6 29.7423
60 1 -38.6737 74.422 29.9245
61 1 -38.3285 75.2646 30.1947
62 1 -37.8595 76.0372 30.3835
63 1 -37.374 76.8576 30.4748
64 1 -36.8925 77.6451 30.7166
ITEM: TIMESTEP
3580000
ITEM: NUMBER OF ATOMS
64
ITEM: BOX BOUNDS mm mm mm
-7.8610214741115158e+01 3.2000000000000000e+01
-3.2000000000000000e+01 7.2403399457593565e+01
-3.2000000000000000e+01 3.2000000000000000e+01
ITEM: ATOMS id type x y z
1 1 -78.6036 57.7043 27.5601
2 1 -77.6643 57.7207 27.7056
3 1 -76.8701 57.757 28.1366
4 1 -75.9814 57.7437 28.4592
5 1 -75.1168 57.5566 28.906
6 1 -74.2761 57.326 29.3114
7 1 -73.3583 57.161 29.5621
8 1 -72.5647 56.9836 29.9545
9 1 -71.6578 56.9534 30.2501
10 1 -70.8516 56.5802 30.6113
11 1 -70.007 56.2756 30.5922
12 1 -69.0923 56.3113 30.7315
13 1 -68.1669 56.2241 30.8693
14 1 -67.2417 56.1817 30.7261
15 1 -66.3417 55.9967 30.6952
16 1 -65.4522 55.78 30.8299
17 1 -64.5903 55.5548 31.0994
18 1 -63.7176 55.1823 31.0219
19 1 -62.8238 54.9658 31.2894
20 1 -61.9437 54.6021 31.1556
21 1 -61.2039 53.9777 30.9294
22 1 -60.5919 53.5123 30.3582
23 1 -59.7503 53.2233 29.9238
24 1 -58.8997 52.8933 29.4908
25 1 -57.9932 52.707 29.3691
26 1 -57.118 52.5424 29.0506
27 1 -56.2396 52.6456 28.643
28 1 -55.4405 52.901 28.1965
29 1 -54.6877 53.3757 27.8599
30 1 -53.9699 53.8363 27.5671
31 1 -53.1308 54.1232 27.2679
32 1 -52.3931 54.6361 26.9875
33 1 -51.6921 55.1798 26.8122
34 1 -50.9573 55.7961 26.6713
35 1 -50.4197 56.5323 26.4204
36 1 -49.9899 57.2073 25.9795
37 1 -49.5732 57.9151 25.6463
38 1 -49.3036 58.7395 25.3754
39 1 -48.957 59.4835 24.9146
40 1 -48.7749 60.3116 24.5875
41 1 -48.5264 61.208 24.4537
42 1 -48.2997 62.1027 24.3878
43 1 -47.9367 62.9092 24.3194
44 1 -47.4632 63.7187 24.2561
45 1 -46.9506 64.4901 24.2388
46 1 -46.4283 65.2336 24.0088
47 1 -45.9573 65.9816 23.7118
48 1 -45.5646 66.819 23.592
49 1 -45.0984 67.6576 23.4425
50 1 -44.5821 68.3945 23.2369
51 1 -44.0269 69.1854 23.0015
52 1 -43.3259 69.7309 22.8055
53 1 -42.5551 70.2522 22.8092
54 1 -41.7061 70.623 22.7716
55 1 -40.8458 71.0756 22.634
56 1 -39.9301 71.1624 22.3214
57 1 -39.0279 71.3666 22.2175
58 1 -38.1486 71.6518 22.4086
59 1 -37.3111 71.8557 22.7956
60 1 -36.6451 71.979 23.4244
61 1 -35.8737 72.0965 23.9535
62 1 -35.0748 72.1677 24.4815
63 1 -34.3007 72.2638 25.0513
64 1 -33.5867 72.4098 25.6576
ITEM: TIMESTEP
3590000
ITEM: NUMBER OF ATOMS
64
ITEM: BOX BOUNDS mm mm mm
-7.4269373153267168e+01 3.2000000000000000e+01
-3.2000000000000000e+01 7.3261420503487884e+01
-3.2000000000000000e+01 3.6949817294278830e+01
ITEM: ATOMS id type x y z
1 1 -74.1401 64.0043 36.8302
2 1 -73.8369 63.7673 35.9995
3 1 -73.6352 63.3288 35.1938
4 1 -73.4237 62.7765 34.4744
5 1 -73.1587 62.2253 33.8065
6 1 -72.9288 61.5454 33.2901
7 1 -72.6448 60.7954 32.837
8 1 -72.7722 59.9211 32.4816
9 1 -72.9567 59.0383 32.2336
10 1 -72.9876 58.2344 31.8254
11 1 -72.7936 57.3654 31.506
12 1 -72.4183 56.5917 31.1652
13 1 -71.9206 55.9711 30.6683
14 1 -71.4292 55.2799 30.2063
15 1 -70.7233 54.7447 29.8961
16 1 -69.9308 54.2795 29.7394
17 1 -69.1551 53.7638 29.7687
18 1 -68.3666 53.2908 29.8145
19 1 -67.604 52.8698 29.4961
20 1 -66.6908 52.5491 29.2442
21 1 -65.7802 52.5562 29.017
22 1 -64.8529 52.6243 28.843
23 1 -63.9571 52.8225 28.587
24 1 -63.0814 53.1336 28.4707
25 1 -62.1659 53.3772 28.4381
26 1 -61.3509 53.8206 28.3
27 1 -60.6139 54.3077 28.3663
28 1 -59.7002 54.689 28.3707
29 1 -58.9292 55.1981 28.4073
30 1 -58.0703 55.5681 28.5178
31 1 -57.3019 56.0529 28.7022
32 1 -56.7069 56.7748 28.787
33 1 -56.2784 57.6005 28.7742
34 1 -55.8834 58.4262 28.5942
35 1 -55.5765 59.3196 28.4491
36 1 -55.0661 60.2156 28.5516
37 1 -54.4311 60.9018 28.6564
38 1 -53.9417 61.5628 28.2403
39 1 -53.5728 62.2647 27.7262
40 1 -53.0262 63.0086 27.271
41 1 -52.4072 63.598 26.7913
42 1 -51.8903 64.2308 26.3515
43 1 -51.1331 64.543 25.8136
44 1 -50.4993 64.9152 25.2559
45 1 -49.7433 65.1886 24.7078
46 1 -49.062 65.4575 24.0368
47 1 -48.5326 65.9868 23.4661
48 1 -48.0128 66.5828 22.9288
49 1 -47.6099 67.247 22.2894
50 1 -46.9779 67.854 21.9407
51 1 -46.414 68.4754 21.4925
52 1 -45.8567 69.2045 21.2145
53 1 -45.1541 69.7368 21.116
54 1 -44.3566 70.2104 21.2169
55 1 -43.7135 70.6909 21.6112
56 1 -42.9538 70.9705 22.0889
57 1 -42.264 71.5486 22.4007
58 1 -41.4488 72.0234 22.6425
59 1 -40.5986 72.2792 22.9844
60 1 -39.7131 72.4504 23.2343
61 1 -38.8258 72.778 23.4123
62 1 -37.9176 72.9111 23.6163
63 1 -37.0344 73.1061 23.9481
64 1 -36.1362 72.885 24.2271
ITEM: TIMESTEP
3600000
ITEM: NUMBER OF ATOMS
64
ITEM: BOX BOUNDS mm mm mm
-8.2569570802658419e+01 3.2000000000000000e+01
-3.2000000000000000e+01 7.4794584544015862e+01
-3.2000000000000000e+01 3.4395322856963553e+01
ITEM: ATOMS id type x y z
1 1 -82.5183 54.5475 34.3549
2 1 -81.6668 54.6405 33.9425
3 1 -80.8712 54.7268 33.4258
4 1 -80.1309 54.7485 32.8247
5 1 -79.4149 54.7699 32.2502
6 1 -78.7637 55.0078 31.617
7 1 -78.0799 55.1914 30.9814
8 1 -77.4219 55.4193 30.3571
9 1 -76.5955 55.5613 29.9592
10 1 -75.7535 55.4698 29.5853
11 1 -74.9231 55.2941 29.1145
12 1 -74.0225 54.9925 28.937
13 1 -73.1965 54.5552 28.9366
14 1 -72.2849 54.3364 28.9132
15 1 -71.3639 54.021 28.7543
16 1 -70.4838 53.8143 28.7957
17 1 -69.6262 53.8624 29.0493
18 1 -68.692 53.8742 29.3642
19 1 -67.9042 54.0307 29.9665
20 1 -67.1182 54.0173 30.5681
21 1 -66.2173 53.9603 30.973
22 1 -65.3516 53.9582 31.1636
23 1 -64.4427 53.8999 31.5439
24 1 -63.6261 53.8108 31.7949
25 1 -62.7251 53.8454 32.0479
26 1 -61.8988 53.8665 32.4472
27 1 -60.9971 53.7634 32.6536
28 1 -60.1579 53.9199 33.004
29 1 -59.3065 54.0428 33.3111
30 1 -58.4253 54.3653 33.466
31 1 -57.5083 54.756 33.4996
32 1 -56.7995 55.3767 33.3123
33 1 -56.0774 55.9366 33.078
34 1 -55.5158 56.6164 32.7807
35 1 -55.0346 57.3336 32.3593
36 1 -54.4396 58.0852 32.3301
37 1 -53.9695 58.8852 32.1914
38 1 -53.6071 59.7005 32.0391
39 1 -53.298 60.5946 31.7399
40 1 -52.9016 61.4575 31.6015
41 1 -52.6147 62.2814 31.2784
42 1 -52.2451 63.0963 30.8213
43 1 -52.1611 63.9172 30.4425
44 1 -51.9235 64.6305 29.9013
45 1 -51.5539 65.2769 29.3273
46 1 -51.3645 65.9528 28.6487
47 1 -51.2606 66.6683 28.0119
48 1 -51.1535 67.134 27.1902
49 1 -51.0101 67.6519 26.397
50 1 -50.8934 68.1769 25.5897
51 1 -50.7203 68.6076 24.775
52 1 -50.5548 69.1229 24.0038
53 1 -50.4762 69.8174 23.4138
54 1 -50.1661 70.4151 22.7452
55 1 -49.6404 70.9366 22.1166
56 1 -49.0352 71.5002 21.6189
57 1 -48.2678 71.9651 21.1692
58 1 -47.5792 72.4327 20.5817
59 1 -46.8764 72.7587 20.1933
60 1 -46.1504 73.1748 19.7193
61 1 -45.4833 73.6238 19.168
62 1 -44.7704 74.1451 18.8823
63 1 -43.9976 74.4743 18.4392
64 1 -43.1543 74.8038 18.1934
ITEM: TIMESTEP
3610000
ITEM: NUMBER OF ATOMS
64
ITEM: BOX BOUNDS mm mm mm
-8.6720554750024220e+01 3.2000000000000000e+01
-3.2000000000000000e+01 7.7077769173945725e+01
-3.2000000000000000e+01 3.4489251106470348e+01
ITEM: ATOMS id type x y z
1 1 -86.5356 56.9922 33.327
2 1 -85.6141 57.1439 33.1877
3 1 -84.7202 57.3141 33.3087
4 1 -83.7778 57.3134 33.3576
5 1 -82.8617 57.5693 33.2389
6 1 -81.9876 57.9286 33.0962
7 1 -81.0968 58.1721 32.9265
8 1 -80.203 58.1101 32.7198
9 1 -79.3264 57.8827 32.6125
10 1 -78.4344 57.6909 32.497
11 1 -77.5252 57.6145 32.2421
12 1 -76.6746 57.456 31.8533
13 1 -75.7637 57.2528 31.734
14 1 -74.7951 57.0024 31.6058
15 1 -73.7877 56.8871 31.6026
16 1 -72.7742 56.8776 31.6169
17 1 -71.8472 56.9778 31.7872
18 1 -71.005 56.9361 32.1596
19 1 -70.0415 56.9815 32.2202
20 1 -69.1465 56.778 32.5197
21 1 -68.3141 56.4302 32.8336
22 1 -67.4916 56.2677 33.2716
23 1 -66.6543 56.1822 33.7065
24 1 -65.7536 56.2822 34.1077
25 1 -64.836 56.2259 34.329
26 1 -63.9052 56.0543 34.3064
27 1 -63.0094 55.6982 34.3706
28 1 -62.1511 55.598 34.1715
29 1 -61.2659 55.6677 33.8607
30 1 -60.546 55.8528 33.2577
31 1 -59.7329 55.99 32.8695
32 1 -59.0015 56.2306 32.3547
33 1 -58.3862 56.6401 31.7678
34 1 -57.7033 57.0995 31.2353
35 1 -56.8909 57.5576 30.9744
36 1 -56.2191 57.9964 30.4816
37 1 -55.7157 58.6484 30.0496
38 1 -55.2036 59.228 29.4741
39 1 -54.7449 59.8626 28.9089
40 1 -54.6389 60.4697 28.2433
41 1 -54.6748 61.2248 27.5763
42 1 -54.7757 61.7905 26.8306
43 1 -54.5202 62.3125 26.0293
44 1 -54.3913 62.9012 25.2976
45 1 -54.1714 63.5106 24.5622
46 1 -53.9543 64.1322 23.8918
47 1 -53.7405 64.7915 23.3068
48 1 -53.5275 65.2698 22.5775
49 1 -52.8798 65.732 22.0638
50 1 -52.3748 66.3735 21.5801
51 1 -51.9454 66.9329 20.9077
52 1 -51.6717 67.6322 20.3854
53 1 -51.4791 68.5237 20.1282
54 1 -51.1927 69.3706 19.9554
55 1 -50.9961 70.2829 20.0115
56 1 -50.5915 71.0465 20.3853
57 1 -50.0881 71.873 20.5302
58 1 -49.4535 72.5409 20.6998
59 1 -48.9991 73.2947 20.8354
60 1 -48.426 74.0554 20.9951
61 1 -47.8882 74.7334 21.3476
62 1 -47.4442 75.4882 21.6385
63 1 -47.0031 76.2726 21.9637
64 1 -46.7107 77.0082 22.4781
ITEM: TIMESTEP
3620000
ITEM: NUMBER OF ATOMS
64
ITEM: BOX BOUNDS mm mm mm
-8.7635169870835625e+01 3.2000000000000000e+01
-3.2000000000000000e+01 7.3707762287822689e+01
-3.2000000000000000e+01 3.4059121671158842e+01
ITEM: ATOMS id type x y z
1 1 -87.8639 55.635 33.6083
2 1 -87.2043 55.2137 33.1129
3 1 -86.5381 54.6459 32.7357
4 1 -85.9037 53.9923 32.4447
5 1 -85.4116 53.1881 32.3061
6 1 -84.7761 52.4742 32.2288
7 1 -84.0761 51.9858 31.8858
8 1 -83.3111 51.5527 31.434
9 1 -82.4178 51.2946 31.2424
10 1 -81.526 51.2027 30.9895
11 1 -80.6043 51.1322 30.7264
12 1 -79.6881 51.2122 30.647
13 1 -78.7447 51.411 30.5399
14 1 -77.9625 51.8732 30.4885
15 1 -77.136 52.3403 30.317
16 1 -76.2174 52.48 30.2107
17 1 -75.3542 52.8918 29.9479
18 1 -74.4866 53.2151 29.8347
19 1 -73.5418 53.3456 29.8877
20 1 -72.6251 53.5451 29.838
21 1 -71.7175 53.8056 29.892
22 1 -70.778 53.8103 29.7608
23 1 -69.8944 53.6943 29.5561
24 1 -68.9721 53.6803 29.4892
25 1 -68.0638 53.6703 29.3417
26 1 -67.1846 53.624 29.1475
27 1 -66.2697 53.5276 28.8316
28 1 -65.4414 53.5905 28.4266
29 1 -64.6411 53.8817 27.9615
30 1 -63.7756 54.1052 27.7267
31 1 -62.9211 54.4481 27.5881
32 1 -62.054 54.687 27.2111
33 1 -61.1697 54.8633 26.811
34 1 -60.3117 55.1299 26.4913
35 1 -59.4702 55.3225 26.0404
36 1 -58.6539 55.4544 25.5834
37 1 -57.7951 55.6941 25.2775
38 1 -56.9461 55.8432 24.8696
39 1 -56.2832 56.2594 24.3434
40 1 -55.628 56.8467 23.9315
41 1 -54.9913 57.2995 23.3646
42 1 -54.4134 57.7541 22.7556
43 1 -53.8233 58.2381 22.2017
44 1 -53.0408 58.5575 21.717
45 1 -52.186 58.8701 21.4367
46 1 -51.4193 59.4157 21.1643
47 1 -50.7522 59.9977 20.914
48 1 -50.205 60.7409 20.6563
49 1 -49.9865 61.6685 20.6309
50 1 -49.7845 62.5835 20.7733
51 1 -49.5594 63.5012 20.8743
52 1 -49.5237 64.4445 20.8848
53 1 -49.5847 65.3822 20.8101
54 1 -49.8206 66.2499 20.5248
55 1 -50.1907 67.1115 20.4071
56 1 -50.7907 67.8659 20.1145
57 1 -51.3892 68.5375 19.8944
58 1 -52.0214 69.2312 19.9085
59 1 -52.5742 69.9823 19.8879
60 1 -53.1291 70.7292 19.9153
61 1 -53.6009 71.5777 20.0049
62 1 -54.0735 72.2382 20.3679
63 1 -54.4466 73.0055 20.7127
64 1 -54.7255 73.7121 21.2569
ITEM: TIMESTEP
3630000
ITEM: NUMBER OF ATOMS
64
ITEM: BOX BOUNDS mm mm mm
-8.7978577938553983e+01 3.2000000000000000e+01
-3.2000000000000000e+01 7.0403353357832074e+01
-3.2000000000000000e+01 3.4375003416471110e+01
ITEM: ATOMS id type x y z
1 1 -87.9213 47.6638 25.4365
2 1 -87.1774 47.4967 26.0239
3 1 -86.3988 47.4988 26.5017
4 1 -85.6688 47.6019 27.0959
5 1 -84.9228 48.0456 27.3894
6 1 -84.1659 48.6645 27.5088
7 1 -83.6051 49.2352 28.0166
8 1 -82.8805 49.5862 28.4155
9 1 -82.1227 49.9433 28.913
10 1 -81.4933 50.4134 29.3598
11 1 -80.9476 50.6762 30.0849
12 1 -80.2358 50.8372 30.62
13 1 -79.3777 50.7374 31.0281
14 1 -78.4841 50.4421 31.3825
15 1 -77.6035 50.2363 31.7151
16 1 -76.6641 50.2132 31.9147
17 1 -75.7184 50.1662 32.0669
18 1 -74.8032 50.107 32.2872
19 1 -73.8011 49.9641 32.3602
20 1 -72.8593 49.7087 32.3905
21 1 -71.976 49.4948 32.5261
22 1 -71.0293 49.6492 32.545
23 1 -70.1086 49.889 32.6302
24 1 -69.1775 50.1395 32.8301
25 1 -68.3105 50.4922 32.9881
26 1 -67.4768 50.8917 33.2516
27 1 -66.7215 51.3678 33.5595
28 1 -65.9668 51.9706 33.6265
29 1 -65.0556 52.4052 33.642
30 1 -64.1792 52.743 33.7073
31 1 -63.2591 53.0788 33.8205
32 1 -62.4134 53.4584 33.8712
33 1 -61.5171 53.7049 33.8733
34 1 -60.6815 54.0896 33.7399
35 1 -59.9233 54.4233 33.3887
36 1 -59.3035 54.9104 32.9392
37 1 -58.6192 55.5254 32.6561
38 1 -57.9629 56.3206 32.5385
39 1 -57.5729 57.1246 32.4987
40 1 -57.1894 57.9463 32.3379
41 1 -56.8443 58.7323 31.949
42 1 -56.4627 59.2181 31.2841
43 1 -56.0976 59.7593 30.5748
44 1 -55.8997 60.2915 29.8377
45 1 -55.3721 60.8592 29.2874
46 1 -54.7948 61.2344 28.6138
47 1 -54.1887 61.5401 27.9804
48 1 -53.6625 61.6591 27.2156
49 1 -53.133 61.7934 26.4434
50 1 -52.6597 62.0193 25.569
51 1 -52.2478 62.2273 24.7203
52 1 -51.8862 62.4701 23.8677
53 1 -51.7918 62.9126 23.0768
54 1 -51.7731 63.4718 22.2808
55 1 -51.6967 64.1875 21.6673
56 1 -51.8775 64.8915 21.0421
57 1 -52.1676 65.3755 20.3492
58 1 -52.5494 66.0093 19.6946
59 1 -52.8822 66.7013 19.1499
60 1 -53.015 67.4146 18.6383
61 1 -53.0171 68.159 18.0563
62 1 -53.0315 68.9085 17.4098
63 1 -52.9281 69.4999 16.6437
64 1 -52.87 69.9907 15.8427
ITEM: TIMESTEP
3640000
ITEM: NUMBER OF ATOMS
64
ITEM: BOX BOUNDS mm mm mm
-8.7991789889759872e+01 3.2000000000000000e+01