ITEM: TIMESTEP
1330000
ITEM: NUMBER OF ATOMS
64
ITEM: BOX BOUNDS mm mm mm
-3.2000000000000000e+01 3.2000000000000000e+01
-3.2000000000000000e+01 3.2000000000000000e+01
-3.2000000000000000e+01 3.2000000000000000e+01
ITEM: ATOMS id type x y z
1 1 -9.7306 1.25025 8.33918
2 1 -9.46916 2.17372 8.31456
3 1 -9.12519 2.99767 7.98136
4 1 -8.868 3.86949 8.2066
5 1 -8.77328 4.19897 9.07415
6 1 -9.01478 4.80722 9.84558
7 1 -9.19778 4.94408 10.8195
8 1 -9.36472 5.33119 11.6557
9 1 -9.48212 5.8535 12.4276
10 1 -9.41254 6.48882 13.1364
11 1 -9.0423 7.15611 13.653
12 1 -8.7874 7.81978 14.2336
13 1 -8.84938 8.7367 14.0706
14 1 -8.84027 9.6713 14.071
15 1 -8.83794 10.592 13.7338
16 1 -8.60629 11.2191 13.1243
17 1 -8.54743 12.1066 12.903
18 1 -8.48669 13.0166 12.5661
19 1 -7.91995 13.8025 12.5724
20 1 -7.43868 14.4719 12.2289
21 1 -7.64925 15.1398 11.5788
22 1 -8.25473 15.6853 11.0066
23 1 -8.99911 16.0978 10.6556
24 1 -9.84 15.9765 10.2755
25 1 -10.4717 15.4556 9.76762
26 1 -11.0443 15.4367 8.96652
27 1 -11.6695 15.2684 8.32492
28 1 -12.2015 14.6851 7.78677
29 1 -12.7501 13.9441 7.95519
30 1 -13.4438 13.4415 7.69905
31 1 -13.9482 12.6274 7.608
32 1 -13.7369 11.732 7.45008
33 1 -13.5787 11.0228 6.82755
34 1 -13.6927 10.325 6.21543
35 1 -14.2101 10.0189 5.50011
36 1 -14.8121 9.47076 5.00438
37 1 -15.3398 8.68822 4.77689
38 1 -15.9098 7.93493 4.8472
39 1 -16.4152 7.35099 5.32601
40 1 -16.8904 6.58118 5.04292
41 1 -17.4991 6.1179 4.45294
42 1 -18.0148 5.98169 3.69062
43 1 -18.6013 5.67697 3.04384
44 1 -18.8422 4.97613 2.49862
45 1 -18.8778 4.10937 2.04008
46 1 -18.8995 3.22663 1.80594
47 1 -19.0351 2.32275 1.51823
48 1 -19.4207 1.51726 1.10075
49 1 -19.6374 0.6153 0.971836
50 1 -19.9044 -0.267152 0.783623
51 1 -19.3468 -1.0273 0.767361
52 1 -18.4058 -1.18985 0.539493
53 1 -17.6354 -0.89129 0.101537
54 1 -16.8487 -0.506129 -0.180027
55 1 -16.1681 0.133528 -0.334043
56 1 -15.3795 0.58778 -0.464218
57 1 -14.4733 1.02372 -0.591424
58 1 -13.6884 1.4035 -0.341189
59 1 -12.7931 1.6874 -0.335919
60 1 -11.8637 1.95024 -0.26733
61 1 -10.9312 1.98783 -0.427019
62 1 -10.1935 1.87984 -0.990576
63 1 -10.1778 1.7435 -1.95438
64 1 -10.4103 1.47244 -2.86313
ITEM: TIMESTEP
1340000
ITEM: NUMBER OF ATOMS
64
ITEM: BOX BOUNDS mm mm mm
-3.2000000000000000e+01 3.2000000000000000e+01
-3.2000000000000000e+01 3.2000000000000000e+01
-3.2000000000000000e+01 3.2000000000000000e+01
ITEM: ATOMS id type x y z
1 1 -6.43262 4.77263 -2.22557
2 1 -5.93683 4.77679 -1.37716
3 1 -5.30337 4.71874 -0.726834
4 1 -4.5555 4.49805 -0.123863
5 1 -3.65074 4.76865 -0.0576685
6 1 -3.09288 5.35271 0.415178
7 1 -3.11889 5.60987 1.31471
8 1 -3.31234 5.71289 2.21222
9 1 -3.92437 5.95012 2.88004
10 1 -4.62791 6.05296 3.38109
11 1 -5.21977 6.28095 4.0677
12 1 -5.59357 6.61861 4.81505
13 1 -6.33164 6.93145 5.31437
14 1 -7.08914 7.10947 5.77763
15 1 -8.05281 7.07296 5.87314
16 1 -8.74186 7.67864 6.04777
17 1 -9.33703 8.48151 6.1025
18 1 -9.51837 9.4439 6.02193
19 1 -9.98999 10.2776 5.7819
20 1 -10.1292 11.2218 5.60794
21 1 -10.3459 12.0556 5.1551
22 1 -10.9926 12.696 5.32202
23 1 -11.5942 13.2426 5.87053
24 1 -12.4439 13.2631 6.22574
25 1 -13.0537 13.0537 6.85303
26 1 -13.7003 12.4538 7.29645
27 1 -14.3327 11.8994 7.70174
28 1 -15.2067 11.6381 8.02762
29 1 -15.9839 11.3527 8.50559
30 1 -16.5896 11.1712 9.3084
31 1 -17.2057 11.0685 10.0028
32 1 -17.4711 10.8354 10.9217
33 1 -17.1615 10.1386 11.4555
34 1 -17.5245 9.33661 11.7857
35 1 -17.5434 8.47223 12.1299
36 1 -18.0684 7.74636 12.4999
37 1 -18.5021 7.14235 13.0601
38 1 -18.5065 6.35064 13.6189
39 1 -18.1578 5.54507 13.286
40 1 -17.8522 4.76338 12.8005
41 1 -17.1684 4.19955 12.4737
42 1 -16.3153 4.01462 12.0867
43 1 -15.6741 3.81223 11.4729
44 1 -14.9077 3.65977 10.901
45 1 -14.2431 3.20221 10.4156
46 1 -13.6939 2.93363 9.68265
47 1 -12.9469 2.55068 9.30985
48 1 -12.1769 2.29209 8.83574
49 1 -11.2864 2.25901 8.47782
50 1 -10.4362 2.01299 8.15169
51 1 -9.48307 1.79323 7.92006
52 1 -8.91921 1.03213 7.83256
53 1 -8.16227 0.425628 7.9848
54 1 -7.4518 -0.0332311 7.53834
55 1 -6.87103 -0.641287 7.17331
56 1 -5.94324 -0.885188 7.11725
57 1 -5.04062 -0.707367 7.23332
58 1 -4.24767 -0.335113 7.6325
59 1 -3.83167 0.431298 8.08056
60 1 -3.36677 1.14032 8.47711
61 1 -3.39901 1.94495 8.88889
62 1 -3.71267 2.75762 9.20776
63 1 -3.29705 3.52996 9.57617
64 1 -2.77179 4.06013 10.1906
ITEM: TIMESTEP
1350000
ITEM: NUMBER OF ATOMS
64
ITEM: BOX BOUNDS mm mm mm
-3.2000000000000000e+01 3.2000000000000000e+01
-3.2000000000000000e+01 3.2000000000000000e+01
-3.2000000000000000e+01 3.2000000000000000e+01
ITEM: ATOMS id type x y z
1 1 -5.15743 6.34592 -0.783011
2 1 -5.79926 6.8348 -0.380427
3 1 -6.10047 7.51273 0.179452
4 1 -6.51527 8.35829 0.453584
5 1 -6.75961 9.23899 0.344357
6 1 -7.1719 9.93685 0.786178
7 1 -7.27431 10.7757 1.17264
8 1 -7.44443 11.7051 1.41627
9 1 -7.52217 12.3495 2.17409
10 1 -7.39388 12.9062 2.95307
11 1 -7.15212 12.8248 3.89732
12 1 -6.82759 12.1108 4.51195
13 1 -6.55667 11.4157 5.10814
14 1 -6.7678 10.7409 5.7336
15 1 -6.96766 10.0103 6.34124
16 1 -7.2806 9.43925 7.06882
17 1 -7.06835 8.75232 7.69389
18 1 -7.70786 8.15613 8.05675
19 1 -8.22917 7.77517 8.7741
20 1 -8.9484 7.79594 9.3483
21 1 -9.86526 7.65696 9.67281
22 1 -10.6453 8.03447 9.9602
23 1 -11.4456 8.49593 9.76603
24 1 -12.2849 8.83527 9.88671
25 1 -13.1978 8.71192 10.2414
26 1 -13.9029 8.91849 10.7696
27 1 -14.7202 8.77679 11.3223
28 1 -15.5865 8.43035 11.5735
29 1 -16.4924 8.38762 11.44
30 1 -17.4102 8.42621 11.4277
31 1 -18.3407 8.51525 11.6555
32 1 -19.1025 8.28607 12.1409
33 1 -19.2864 7.77624 12.9225
34 1 -18.8454 6.93665 13.2595
35 1 -18.1964 6.25128 13.0651
36 1 -17.884 5.51802 13.4868
37 1 -17.3729 4.8313 14.0074
38 1 -16.9241 4.05327 14.3396
39 1 -16.5532 3.32578 14.79
40 1 -15.9891 2.71171 15.373
41 1 -15.5654 1.84015 15.4876
42 1 -15.1089 1.01402 15.3397
43 1 -15.1516 0.0401857 15.4378
44 1 -14.7263 -0.75736 15.577
45 1 -14.2213 -1.49639 15.3195
46 1 -13.7335 -2.24142 15.2125
47 1 -12.8889 -2.65693 15.149
48 1 -12.1345 -3.06465 14.9307
49 1 -11.4173 -3.61106 14.8321
50 1 -10.6653 -4.0728 14.5313
51 1 -9.87166 -4.39885 14.2334
52 1 -8.94035 -4.50308 14.3257
53 1 -8.24318 -3.82452 14.4591
54 1 -7.68234 -3.06566 14.6469
55 1 -6.94699 -2.50426 14.6079
56 1 -6.43115 -1.78607 14.8853
57 1 -6.03269 -1.06242 15.2163
58 1 -5.57636 -0.333844 15.6
59 1 -5.13275 0.162854 16.2161
60 1 -4.35783 0.49375 16.6744
61 1 -3.69728 0.926133 17.1215
62 1 -3.17299 1.41965 17.7745
63 1 -2.48914 1.90741 18.2196
64 1 -1.84805 2.55427 18.6024
ITEM: TIMESTEP
1360000
ITEM: NUMBER OF ATOMS
64
ITEM: BOX BOUNDS mm mm mm
-3.2000000000000000e+01 3.2000000000000000e+01
-3.2000000000000000e+01 3.2000000000000000e+01
-3.2000000000000000e+01 3.2000000000000000e+01
ITEM: ATOMS id type x y z
1 1 -7.45713 12.3055 -2.72293
2 1 -7.50496 12.6413 -1.84552
3 1 -7.45379 12.6268 -0.950709
4 1 -7.24317 12.3146 -0.0843876
5 1 -7.45368 12.2143 0.829435
6 1 -7.36235 11.9075 1.68017
7 1 -6.4989 11.7588 2.06383
8 1 -5.60365 11.6797 2.45558
9 1 -5.39667 11.5474 3.36685
10 1 -5.22149 11.5615 4.26969
11 1 -4.87164 11.0723 4.98838
12 1 -4.24472 10.7805 5.65841
13 1 -3.58505 10.4274 6.16615
14 1 -3.33619 9.59386 6.56793
15 1 -3.3054 8.899 7.24144
16 1 -3.29017 8.52074 8.08281
17 1 -3.79282 8.09964 8.70729
18 1 -4.48807 8.09755 9.35625
19 1 -5.40418 8.43852 9.50002
20 1 -6.2448 8.78409 9.35273
21 1 -7.11685 8.76873 9.52397
22 1 -8.02172 8.69165 9.68845
23 1 -8.66205 8.99482 10.2366
24 1 -9.48671 9.34195 10.5599
25 1 -10.3077 9.71092 10.2258
26 1 -10.8414 9.74014 9.42297
27 1 -11.4191 9.28536 8.80114
28 1 -12.0619 8.61152 8.85224
29 1 -12.6653 8.03816 9.20818
30 1 -13.4175 7.45875 9.26926
31 1 -14.123 6.8851 9.56789
32 1 -14.7612 6.27739 9.89635
33 1 -15.615 5.99519 10.2255
34 1 -16.3361 5.35341 10.2338
35 1 -16.8596 4.60791 10.3992
36 1 -17.3491 3.8447 10.6987
37 1 -17.3009 2.92164 10.8317
38 1 -16.8698 2.05673 10.9197
39 1 -16.3107 1.3233 11.0194
40 1 -15.912 0.501014 11.2465
41 1 -15.7645 -0.436788 10.9465
42 1 -15.1989 -1.09267 11.2517
43 1 -14.8875 -1.35358 12.0669
44 1 -14.8027 -1.43371 12.9921
45 1 -14.8896 -1.32733 13.9481
46 1 -14.1331 -1.76747 14.121
47 1 -13.6546 -2.42458 14.5831
48 1 -13.2645 -3.28538 14.5621
49 1 -12.731 -4.11214 14.6101
50 1 -11.8399 -4.38802 14.4435
51 1 -10.9389 -4.28555 14.648
52 1 -10.4058 -3.50219 14.6235
53 1 -9.54184 -3.19259 14.9441
54 1 -8.70355 -2.81636 14.8883
55 1 -7.9105 -2.34251 14.6802
56 1 -7.65519 -1.41283 14.7366
57 1 -7.18623 -1.04185 14.0277
58 1 -6.77581 -0.306367 13.6631
59 1 -6.63711 0.467344 13.1879
60 1 -7.05856 1.29893 12.9598
61 1 -7.89715 1.66576 13.2259
62 1 -8.69453 2.18511 13.4502
63 1 -9.26026 2.82591 13.787
64 1 -9.91387 3.45602 14.0941
ITEM: TIMESTEP
1370000
ITEM: NUMBER OF ATOMS
64
ITEM: BOX BOUNDS mm mm mm
-3.2000000000000000e+01 3.2000000000000000e+01
-3.2000000000000000e+01 3.2000000000000000e+01
-3.2000000000000000e+01 3.2000000000000000e+01
ITEM: ATOMS id type x y z
1 1 -6.36074 20.4302 1.32443
2 1 -5.69477 19.8757 0.891748
3 1 -5.18376 19.0883 0.819779
4 1 -5.20293 18.2851 0.334897
5 1 -5.13452 17.3751 0.0750456
6 1 -5.36275 16.5359 -0.27736
7 1 -5.24027 15.6039 -0.281171
8 1 -5.24006 14.6812 -0.485127
9 1 -4.99073 13.7318 -0.505453
10 1 -4.70331 13.5479 0.335056
11 1 -5.17413 13.2229 1.05054
12 1 -5.40651 12.9276 2.00605
13 1 -5.4369 12.5899 2.89758
14 1 -5.86599 12.2854 3.73697
15 1 -6.45126 12.1341 4.46205
16 1 -7.2768 12.049 4.87981
17 1 -8.1267 11.8991 5.37677
18 1 -8.89331 11.4725 5.7817
19 1 -9.7487 11.0272 5.94533
20 1 -10.6908 10.9376 5.85628
21 1 -11.5852 10.8553 5.56724
22 1 -12.5091 10.7598 5.63895
23 1 -13.3706 10.8399 5.98629
24 1 -14.1961 11.183 6.15694
25 1 -14.9868 11.4901 6.42777
26 1 -15.9041 11.2987 6.33703
27 1 -16.7435 10.8493 6.10632
28 1 -17.6213 10.7925 6.46656
29 1 -18.4001 10.3581 6.75902
30 1 -18.9678 9.70369 7.14946
31 1 -19.6301 9.09646 7.55287
32 1 -19.8137 8.22318 7.92002
33 1 -20.0605 7.35343 8.15151
34 1 -20.296 6.61804 8.68157
35 1 -20.51 6.07909 9.45782
36 1 -20.6073 5.19005 9.80767
37 1 -20.5373 4.36431 10.1366
38 1 -20.8026 3.46977 10.1983
39 1 -20.8771 2.58915 10.4898
40 1 -20.9349 1.75416 10.931
41 1 -21.0129 1.26943 11.7763
42 1 -20.843 0.759222 12.4879
43 1 -20.8087 -0.0117197 12.9876
44 1 -20.492 -0.32197 13.8431
45 1 -19.9129 -0.636659 14.5106
46 1 -19.2649 -0.606002 15.2311
47 1 -18.3767 -0.849307 15.5547
48 1 -17.5526 -1.17255 15.9226
49 1 -16.8312 -0.669191 16.2555
50 1 -16.0426 -0.131379 16.3679
51 1 -15.1355 -0.0802595 16.1544
52 1 -14.1976 0.0317655 16.0881
53 1 -13.439 -0.178217 15.5987
54 1 -12.9044 0.111091 14.8964
55 1 -12.3163 0.505068 14.2595
56 1 -11.6469 0.384251 13.5575
57 1 -11.0187 0.0376243 13.0145
58 1 -10.1645 -0.42559 12.9563
59 1 -9.2836 -0.763037 12.8017
60 1 -8.35746 -0.732721 12.7807
61 1 -7.59515 -0.244789 13.0696
62 1 -6.73961 0.12058 13.003
63 1 -5.88038 0.0158981 13.2567
64 1 -4.98341 0.231203 13.435
ITEM: TIMESTEP
1380000
ITEM: NUMBER OF ATOMS
64
ITEM: BOX BOUNDS mm mm mm
-3.2000000000000000e+01 3.2000000000000000e+01
-3.2000000000000000e+01 3.2000000000000000e+01
-3.2000000000000000e+01 3.2000000000000000e+01
ITEM: ATOMS id type x y z
1 1 -12.1381 16.9406 -4.47406
2 1 -11.955 17.3263 -3.64524
3 1 -11.8927 17.4985 -2.75748
4 1 -11.9986 17.3549 -1.85543
5 1 -11.6863 16.8346 -1.16981
6 1 -11.3159 16.2949 -0.48378
7 1 -11.0129 15.7917 0.263036
8 1 -10.279 15.3823 0.731666
9 1 -9.63672 14.7618 1.06174
10 1 -9.08461 14.5492 1.78985
11 1 -8.3738 14.6003 2.47409
12 1 -8.17443 14.3069 3.32681
13 1 -8.17337 14.3437 4.26517
14 1 -9.07389 14.5248 4.57961
15 1 -9.92853 14.3834 4.92032
16 1 -10.733 13.9201 5.17413
17 1 -11.5391 13.4113 5.11627
18 1 -12.1434 12.7759 5.4573
19 1 -12.2825 12.1208 6.07465
20 1 -12.5238 11.2035 6.03882
21 1 -13.1473 10.5656 5.90186
22 1 -13.5889 9.86605 5.3662
23 1 -14.1304 9.30958 5.80423
24 1 -14.9251 8.83932 5.53491
25 1 -15.728 8.58886 5.23663
26 1 -16.483 8.13568 4.79382
27 1 -17.3025 7.98643 4.31838
28 1 -18.1773 8.00152 4.06022
29 1 -19.0516 8.10781 4.27307
30 1 -19.724 7.42001 4.47983
31 1 -20.0216 6.70507 5.02791
32 1 -20.7269 6.04381 5.25099
33 1 -21.0112 5.75636 6.14038
34 1 -21.1499 5.62515 7.0657
35 1 -21.1148 5.3423 7.98145
36 1 -21.3734 4.88744 8.78213
37 1 -21.9846 4.38496 9.21698
38 1 -22.5139 3.64684 9.44638
39 1 -22.9889 3.32546 10.2323
40 1 -23.1658 3.35489 11.246
41 1 -22.5942 3.52791 12.0214
42 1 -22.2539 3.67769 12.9144
43 1 -21.6821 4.10412 13.5474
44 1 -20.7849 3.98281 13.5287
45 1 -19.9921 3.81001 13.0981
46 1 -19.1952 3.57946 12.7484
47 1 -18.3255 3.24651 12.548
48 1 -17.5793 2.80361 12.2684
49 1 -16.8773 2.16412 12.3012
50 1 -15.9273 2.15329 12.1531
51 1 -15.0351 1.97111 11.9268
52 1 -14.0604 1.83197 11.8746
53 1 -13.1449 1.89096 12.0405
54 1 -12.5145 2.36739 12.4836
55 1 -12.2337 2.99949 13.0903
56 1 -12.0116 3.82769 13.4082
57 1 -12.2214 4.75123 13.3452
58 1 -12.7384 5.54695 13.1618
59 1 -13.3394 6.22191 13.1786
60 1 -14.1357 6.35917 13.6869
61 1 -15.055 6.42073 13.9435
62 1 -16.0035 6.5287 14.0603
63 1 -16.8343 7.00766 14.1487
64 1 -17.6919 7.31844 14.259
ITEM: TIMESTEP
1390000
ITEM: NUMBER OF ATOMS
64
ITEM: BOX BOUNDS mm mm mm
-3.2000000000000000e+01 3.2000000000000000e+01
-3.2000000000000000e+01 3.2000000000000000e+01
-3.2000000000000000e+01 3.2000000000000000e+01
ITEM: ATOMS id type x y z
1 1 -7.02185 18.0674 -0.320312
2 1 -6.50003 17.4014 -0.67607
3 1 -6.26619 17.0334 -1.4444
4 1 -6.49416 16.9994 -2.33244
5 1 -7.04134 16.766 -3.07717
6 1 -7.61604 16.9036 -3.78359
7 1 -8.27987 16.9652 -4.41236
8 1 -9.13142 16.8787 -4.88946
9 1 -9.85178 17.2779 -5.37101
10 1 -10.5921 17.6758 -5.95167
11 1 -11.2047 17.7325 -6.70442
12 1 -12.0636 17.6594 -7.1548
13 1 -13.0086 17.5657 -6.94866
14 1 -13.8932 17.2893 -6.91383
15 1 -14.5836 17.211 -6.34976
16 1 -15.2937 17.1942 -5.61898
17 1 -15.8409 16.6972 -5.00626
18 1 -16.5351 16.1416 -4.76571
19 1 -17.2643 16.0616 -4.16133
20 1 -17.9846 16.0915 -3.5837
21 1 -18.7307 16.3325 -3.09372
22 1 -19.3445 16.3168 -2.38448
23 1 -20.1405 15.9913 -1.9362
24 1 -20.8041 15.4704 -1.41606
25 1 -20.9255 14.8285 -0.741855
26 1 -21.0022 14.2072 -0.0157162
27 1 -20.8917 14.0385 0.949795
28 1 -20.8098 13.2645 1.49987
29 1 -20.9381 12.4907 2.04811
30 1 -20.4672 12.1014 2.81395
31 1 -20.2014 11.5408 3.48513
32 1 -20.0527 11.0686 4.30054
33 1 -20.112 10.5325 5.13558
34 1 -20.2741 9.82373 5.67078
35 1 -20.4205 9.26709 6.41107
36 1 -20.1118 8.88892 7.24723
37 1 -19.8899 8.3291 7.97157
38 1 -19.4313 7.73567 8.53248
39 1 -19.1041 7.02336 9.15875
40 1 -19.3986 6.77439 9.99646
41 1 -19.8004 6.29414 10.7653
42 1 -19.8163 5.7075 11.4854
43 1 -19.8963 5.30787 12.3573
44 1 -19.1511 5.24891 12.9374
45 1 -18.3301 5.39512 13.364
46 1 -17.5677 5.01277 13.7268
47 1 -16.8893 4.95007 14.4055
48 1 -16.3991 4.7494 15.1442
49 1 -15.9362 4.89415 15.9699
50 1 -15.6573 5.19638 16.8559
51 1 -15.2995 5.95442 17.3645
52 1 -14.839 6.75989 17.5969
53 1 -14.4845 7.35046 18.2789
54 1 -14.1457 7.74598 19.1154
55 1 -14.1211 8.40137 19.7673
56 1 -14.0426 8.89503 20.5771
57 1 -14.0606 9.41147 21.426
58 1 -14.5325 9.32763 22.2811
59 1 -15.0358 9.93372 22.7882
60 1 -15.7114 10.4295 23.2347
61 1 -16.4171 10.8856 23.6197
62 1 -17.3133 11.1349 23.9431
63 1 -18.2134 11.1692 24.3649
64 1 -19.0188 11.2204 24.7859
ITEM: TIMESTEP
1400000
ITEM: NUMBER OF ATOMS
64
ITEM: BOX BOUNDS mm mm mm
-3.2000000000000000e+01 3.2000000000000000e+01
-3.2000000000000000e+01 3.2000000000000000e+01
-3.2000000000000000e+01 3.2000000000000000e+01
ITEM: ATOMS id type x y z
1 1 -3.20934 12.1391 0.478655
2 1 -4.06818 12.3051 0.10495
3 1 -4.95973 12.324 -0.286168
4 1 -5.87726 12.5527 -0.348794
5 1 -6.4397 13.3029 -0.412222
6 1 -6.91752 14.0536 -0.598104
7 1 -7.13413 14.9514 -0.925173
8 1 -8.01743 15.3168 -1.02604
9 1 -8.88593 15.7424 -0.765672
10 1 -9.63252 16.2366 -0.969348
11 1 -10.4456 16.6199 -1.07518
12 1 -11.318 16.7197 -1.54241
13 1 -11.8678 16.9722 -2.27659
14 1 -12.4269 17.3645 -2.87312
15 1 -12.9822 17.8382 -3.52564
16 1 -13.8416 17.8274 -3.93506
17 1 -14.8135 17.7941 -3.99911
18 1 -15.6167 18.1613 -3.6056
19 1 -16.5319 18.2705 -3.32222
20 1 -17.4336 18.5019 -3.08507
21 1 -18.2796 18.648 -2.73058
22 1 -19.1513 18.3763 -2.44518
23 1 -19.7273 17.7062 -2.10601
24 1 -20.4538 17.2399 -1.68276
25 1 -21.1558 16.7997 -1.32239
26 1 -21.6659 16.1101 -0.907454
27 1 -21.5789 15.1896 -0.618944
28 1 -21.6109 14.3525 -0.0658981
29 1 -21.6035 13.9923 0.795711
30 1 -21.5581 13.8697 1.75523
31 1 -21.7672 13.6811 2.70902
32 1 -21.9282 13.5061 3.56673
33 1 -21.6291 13.1983 4.46086
34 1 -21.0508 12.6706 5.04656
35 1 -20.5543 12.0317 5.52497
36 1 -20.0497 11.4912 6.09533
37 1 -19.4465 10.938 6.5582
38 1 -18.7475 10.392 7.05412
39 1 -18.3189 9.74357 7.46389
40 1 -17.8153 9.27121 8.10912
41 1 -17.0003 9.02417 8.48893
42 1 -16.2259 8.56565 8.78287
43 1 -15.3911 8.34196 9.20282
44 1 -14.7946 7.84742 9.79177
45 1 -13.9442 7.75448 10.1539
46 1 -13.9104 7.5891 11.0931
47 1 -13.6331 7.08103 11.8191
48 1 -13.2423 6.69028 12.6367
49 1 -13.219 7.18493 13.4049
50 1 -13.3275 7.17427 14.2806
51 1 -13.818 7.50393 15.0612
52 1 -14.6179 7.85009 15.4887
53 1 -15.0614 8.23047 16.2166
54 1 -15.0579 8.70365 17.0486
55 1 -15.3598 9.2698 17.7232
56 1 -15.6683 9.85963 18.353
57 1 -16.216 10.0865 19.134
58 1 -16.9977 10.3162 19.5925
59 1 -17.4891 10.8595 20.1485
60 1 -18.2227 11.2491 20.485
61 1 -18.6546 11.8272 21.1283
62 1 -18.8807 12.6268 21.6346
63 1 -18.536 13.442 21.87
64 1 -18.0641 13.7829 22.6156
ITEM: TIMESTEP
1410000
ITEM: NUMBER OF ATOMS
64
ITEM: BOX BOUNDS mm mm mm
-3.2000000000000000e+01 3.2000000000000000e+01
-3.2000000000000000e+01 3.2000000000000000e+01
-3.2000000000000000e+01 3.2000000000000000e+01
ITEM: ATOMS id type x y z
1 1 -1.60215 14.7079 3.59851
2 1 -2.13461 15.0933 2.90373
3 1 -2.71686 15.6468 2.44201
4 1 -3.43426 16.1434 2.01034
5 1 -4.07518 16.0819 1.36496
6 1 -4.91072 15.6788 1.17708
7 1 -5.45747 15.3809 0.486798
8 1 -5.97749 15.1568 -0.286189
9 1 -6.5138 14.8015 -0.993328
10 1 -7.20633 14.2133 -1.32255
11 1 -8.11556 14.1152 -1.08126
12 1 -9.03037 14.2231 -0.84354
13 1 -9.97596 14.1883 -0.801888
14 1 -10.8041 14.0527 -0.354478
15 1 -11.6137 13.6506 -0.187946
16 1 -12.4776 13.4049 0.285026
17 1 -13.3058 13.1739 0.639429
18 1 -14.1951 13.2681 1.0104
19 1 -15.096 12.9768 1.07888
20 1 -15.9593 13.0857 1.2806
21 1 -16.7692 12.6673 1.51571
22 1 -17.6019 12.181 1.30899
23 1 -18.1792 11.4357 1.36632
24 1 -18.0944 10.4908 1.16236
25 1 -18.4471 9.61528 0.978333
26 1 -18.6042 8.69147 1.06779
27 1 -18.6781 7.76445 1.16788
28 1 -19.2673 7.10935 1.51196
29 1 -19.9793 7.01433 2.107
30 1 -20.662 6.87557 2.72714
31 1 -21.1011 6.54989 3.53883
32 1 -21.9232 6.14423 3.72338
33 1 -22.4899 5.46943 3.62192
34 1 -22.8927 4.76525 4.11002
35 1 -22.7238 4.31193 4.94664
36 1 -22.8512 4.70152 5.86057
37 1 -22.8607 5.20191 6.65939
38 1 -22.822 5.14319 7.54312
39 1 -22.6176 5.30457 8.43967
40 1 -22.4314 5.4605 9.39983
41 1 -22.3049 6.15189 9.97659
42 1 -22.2065 7.05361 10.1592
43 1 -21.9302 7.8697 10.5174
44 1 -21.9179 8.77372 10.8063
45 1 -21.5671 9.37746 11.4403
46 1 -20.9556 9.78728 12.02
47 1 -20.3076 10.4067 12.2978
48 1 -19.5963 11.0093 12.043
49 1 -18.6655 11.2451 11.6719
50 1 -17.7653 11.286 11.9531
51 1 -16.9459 10.98 12.3097
52 1 -16.1063 11.1896 12.6912
53 1 -15.2202 10.9165 12.9452
54 1 -14.8602 10.6044 13.7538
55 1 -14.18 10.4291 14.3749
56 1 -13.7476 9.92189 15.1859
57 1 -13.5819 9.63948 16.109
58 1 -13.1131 9.46685 16.9387
59 1 -12.6167 9.59361 17.7329
60 1 -11.8232 9.8043 18.1406
61 1 -11.0489 10.0339 18.6371
62 1 -10.2642 10.3335 19.1699
63 1 -9.40507 10.2402 19.4893
64 1 -8.67896 9.68543 19.8362
ITEM: TIMESTEP
1420000
ITEM: NUMBER OF ATOMS
64
ITEM: BOX BOUNDS mm mm mm
-3.2000000000000000e+01 3.2000000000000000e+01
-3.2000000000000000e+01 3.2000000000000000e+01
-3.2000000000000000e+01 3.2000000000000000e+01
ITEM: ATOMS id type x y z
1 1 0.838978 9.64515 -1.55348
2 1 0.143257 9.74587 -0.922618
3 1 -0.742895 9.9757 -0.495613
4 1 -1.38278 10.4419 -0.0474665
5 1 -2.20038 10.7542 0.227266
6 1 -2.80916 11.2 0.818273
7 1 -3.07555 11.8324 1.41791
8 1 -3.59589 12.1279 2.16559
9 1 -4.33831 11.789 2.68969
10 1 -5.07778 11.3794 3.19975
11 1 -5.86894 11.4934 3.67806
12 1 -6.66961 11.4989 4.1148
13 1 -7.48275 11.8248 4.49293
14 1 -8.25556 12.4048 4.57563
15 1 -9.09775 12.8361 4.61843
16 1 -10.032 12.7392 4.71069
17 1 -10.8316 12.4207 5.06769
18 1 -11.6896 12.5126 5.43341
19 1 -12.4529 12.0285 5.711
20 1 -13.2975 11.7191 5.3636
21 1 -13.6968 11.2711 4.65669
22 1 -13.6301 10.7 3.94279
23 1 -13.8545 10.0585 3.26007
24 1 -14.4591 9.60438 2.67297
25 1 -14.7456 9.27776 1.80431
26 1 -14.7319 8.6566 1.13304
27 1 -15.0348 8.07592 0.481402
28 1 -15.1781 7.52874 -0.233451
29 1 -15.6996 6.71914 -0.305949
30 1 -16.2384 6.07594 -0.725807
31 1 -17.031 5.63044 -0.65415
32 1 -17.8003 5.04235 -0.688648
33 1 -18.3679 4.3622 -0.470657
34 1 -19.3256 4.14695 -0.47631
35 1 -20.1869 4.46808 -0.714475
36 1 -20.8194 5.05819 -1.0663
37 1 -21.2113 5.84247 -1.33356
38 1 -21.7513 6.59155 -1.29337
39 1 -22.5967 6.96177 -1.11129
40 1 -23.078 7.61687 -0.644975
41 1 -23.1861 8.03957 0.169142
42 1 -22.457 8.15836 0.857868
43 1 -21.8043 7.93511 1.46665
44 1 -21.4301 7.47815 2.22268
45 1 -21.1998 6.78135 2.81421
46 1 -20.8177 6.35372 3.60219
47 1 -20.3643 5.79052 4.14732
48 1 -19.7137 5.49034 4.86791
49 1 -19.1894 5.1568 5.57726
50 1 -18.9674 4.90312 6.43852
51 1 -18.5612 5.03073 7.26836
52 1 -18.6135 5.61431 7.98052
53 1 -18.4173 5.87874 8.91991
54 1 -18.9171 6.54813 9.45554
55 1 -19.3129 7.27974 9.82712
56 1 -19.6691 7.76491 10.5198
57 1 -19.9953 8.39766 11.1935
58 1 -20.2774 9.04844 11.7752
59 1 -20.8627 9.46342 12.3305
60 1 -20.8234 10.152 13.0434
61 1 -20.3839 10.5413 13.8121
62 1 -19.7392 11.1569 13.5379
63 1 -19.536 12.0948 13.5533
64 1 -18.9936 12.8511 13.4768
ITEM: TIMESTEP
1430000
ITEM: NUMBER OF ATOMS
64
ITEM: BOX BOUNDS mm mm mm
-3.2000000000000000e+01 3.2000000000000000e+01
-3.2000000000000000e+01 3.2000000000000000e+01
-3.2000000000000000e+01 3.2000000000000000e+01
ITEM: ATOMS id type x y z
1 1 -4.78572 7.94534 -2.81486
2 1 -4.33271 8.0354 -2.05046
3 1 -4.15804 7.63607 -1.21716
4 1 -4.32134 7.42146 -0.372239
5 1 -4.29974 7.5197 0.581668
6 1 -4.21293 7.54879 1.51089
7 1 -4.14927 7.47653 2.44846
8 1 -4.91094 7.12499 2.85887
9 1 -5.67154 6.63805 3.01962
10 1 -6.54013 6.31214 2.9256
11 1 -7.5554 6.2152 2.99879
12 1 -8.34629 6.54527 3.3962
13 1 -9.04223 7.00008 3.08964
14 1 -9.24998 7.60416 2.41706
15 1 -9.40814 8.32599 1.87996
16 1 -9.39103 8.95804 1.16669
17 1 -9.36276 9.55963 0.483235
18 1 -9.51895 10.3058 -0.141745
19 1 -9.83264 11.2105 -0.235469
20 1 -10.3014 12.0079 -0.296115
21 1 -10.8556 12.6867 -0.658226
22 1 -11.6832 13.0584 -1.04376
23 1 -12.6064 13.1781 -1.21316
24 1 -13.4685 12.8442 -1.35597
25 1 -14.3662 12.6001 -1.41307
26 1 -15.0918 11.9756 -1.24384
27 1 -15.7019 11.3749 -0.853078
28 1 -16.4829 11.1546 -0.353928
29 1 -17.2283 11.3014 0.212276
30 1 -18.0674 11.487 0.591472
31 1 -19.0118 11.4784 0.925715
32 1 -19.5936 11.2901 1.58573
33 1 -20.3256 11.0612 2.11557
34 1 -21.0882 10.6634 2.42909
35 1 -22.0496 10.6816 2.68294
36 1 -22.4997 9.93961 2.84334
37 1 -22.3621 8.99195 2.66125
38 1 -22.1185 8.18721 2.27466
39 1 -21.7124 7.38361 2.5344
40 1 -21.1141 6.64128 2.57527
41 1 -20.4107 6.03944 2.60756
42 1 -19.6073 5.70557 2.39122
43 1 -19.0328 5.04207 2.09078
44 1 -18.2615 4.63566 1.80395
45 1 -17.761 4.03431 1.18132
46 1 -17.0651 3.45954 0.942424
47 1 -16.1776 3.35008 1.13096
48 1 -15.2597 3.49677 1.20005
49 1 -14.3914 3.43937 1.4447
50 1 -13.9444 3.11016 2.17724
51 1 -13.7503 2.7762 3.02967
52 1 -13.513 2.14363 3.74467
53 1 -13.6454 2.03461 4.63901
54 1 -13.9833 2.21184 5.49685
55 1 -14.4292 2.60977 6.24324
56 1 -14.8455 2.82555 7.05379
57 1 -15.2657 3.03242 7.84616
58 1 -15.0433 3.71143 8.54826
59 1 -14.8844 4.55944 8.85061
60 1 -14.8035 5.44018 9.12521
61 1 -14.5908 6.06566 9.77984
62 1 -14.5663 6.92328 10.1822
63 1 -14.9295 7.64592 10.7007
64 1 -15.0985 8.58077 10.8949
ITEM: TIMESTEP
1440000
ITEM: NUMBER OF ATOMS
64
ITEM: BOX BOUNDS mm mm mm
-3.2000000000000000e+01 3.2000000000000000e+01
-3.2000000000000000e+01 3.2000000000000000e+01
-3.2000000000000000e+01 3.2000000000000000e+01
ITEM: ATOMS id type x y z
1 1 2.18688 8.30442 3.96691
2 1 1.25556 8.45134 4.07673
3 1 0.56253 9.00261 4.51899
4 1 -0.0367231 9.46016 5.01527
5 1 -0.837465 9.90897 5.42514
6 1 -1.36092 10.6269 5.66674
7 1 -2.1109 10.9962 5.32359
8 1 -2.9003 11.52 5.49316
9 1 -3.65821 12.076 5.64202
10 1 -4.35308 12.7263 5.63499
11 1 -5.18436 13.2454 5.62351
12 1 -6.05544 13.4397 5.93251
13 1 -6.97036 13.3597 5.70217
14 1 -7.81491 13.1571 5.4729
15 1 -8.38385 12.5773 4.97108
16 1 -8.65924 11.8287 4.41359
17 1 -8.56155 11.1199 3.81324
18 1 -8.3422 10.5656 3.06044
19 1 -8.27724 10.1464 2.24174
20 1 -8.31785 9.82935 1.37121
21 1 -8.95256 9.36639 0.831585
22 1 -9.68744 9.17532 0.314105
23 1 -10.4187 9.31048 -0.314149
24 1 -11.0798 9.88292 -0.69412
25 1 -11.8643 10.3395 -0.955287
26 1 -12.5579 10.7035 -1.5009
27 1 -13.3263 11.2453 -1.5917
28 1 -14.2349 11.4382 -1.59821
29 1 -15.1249 11.5275 -1.41386
30 1 -15.9788 11.1543 -1.22481
31 1 -16.7173 10.9016 -0.711117
32 1 -17.2565 10.403 -0.120243
33 1 -17.8221 9.90207 0.408519
34 1 -18.5217 9.42763 0.836057
35 1 -18.75 8.90221 1.58954
36 1 -18.4212 9.09033 2.45603
37 1 -18.3375 8.63202 3.26178
38 1 -18.2306 8.2345 4.05884
39 1 -17.6359 7.87929 4.73842
40 1 -16.9276 7.23444 4.67605
41 1 -16.511 6.3847 4.77184
42 1 -16.0003 5.58411 4.85361
43 1 -15.7867 4.8617 5.39515
44 1 -15.1238 4.59551 6.02353
45 1 -14.4779 4.19934 6.58578
46 1 -14.1115 4.10277 7.47011
47 1 -13.3432 3.93842 8.03965
48 1 -12.9052 4.45528 8.68331
49 1 -12.8254 4.2589 9.68706
50 1 -12.9677 4.36101 10.6314
51 1 -13.0996 4.83663 11.4615
52 1 -12.7703 5.32804 12.2038
53 1 -12.6919 6.03235 12.8049
54 1 -12.7326 6.52539 13.588
55 1 -13.4479 6.81728 14.1236
56 1 -13.8629 6.83032 14.9899
57 1 -13.3357 7.07831 15.7049
58 1 -12.6621 6.83553 16.3009
59 1 -12.3673 7.26669 17.025
60 1 -12.6331 7.86843 17.6824
61 1 -13.004 8.38058 18.3293
62 1 -13.1331 9.09283 18.9411
63 1 -13.5206 9.68759 19.5483
64 1 -13.8064 10.2239 20.2612
ITEM: TIMESTEP
1450000
ITEM: NUMBER OF ATOMS
64
ITEM: BOX BOUNDS mm mm mm
-3.2000000000000000e+01 3.2000000000000000e+01
-3.2000000000000000e+01 3.2000000000000000e+01
-3.2000000000000000e+01 3.2000000000000000e+01
ITEM: ATOMS id type x y z
1 1 -1.62293 10.9023 13.3978
2 1 -1.80158 11.1897 12.5155
3 1 -2.19432 11.2242 11.6384
4 1 -3.00419 11.166 11.0622
5 1 -3.52391 10.8347 10.3379
6 1 -3.76657 10.6568 9.5094
7 1 -3.36707 10.6957 8.6019
8 1 -3.09769 10.5323 7.73441
9 1 -2.91496 10.3876 6.82374
10 1 -2.77298 9.70941 6.08733
11 1 -3.0996 9.18541 5.37507
12 1 -3.36851 9.05225 4.47018
13 1 -3.80661 9.159 3.63067
14 1 -4.0943 9.55849 2.83104
15 1 -3.79861 9.838 1.89503
16 1 -4.13443 9.9527 0.973523
17 1 -4.61999 10.7195 0.740559
18 1 -4.87118 11.4348 1.3548
19 1 -5.61725 11.5268 1.91464
20 1 -6.33504 11.3897 2.56583
21 1 -6.99254 11.297 3.29172
22 1 -7.9105 11.3746 3.3033
23 1 -8.74826 11.2873 3.6521
24 1 -9.54213 11.4583 4.14575
25 1 -10.2199 10.8247 4.01918
26 1 -10.9018 10.3721 4.44469
27 1 -11.638 9.77805 4.71805
28 1 -12.536 9.56127 4.51816
29 1 -13.4056 9.55773 4.33122
30 1 -13.8641 9.76775 3.54624
31 1 -14.6423 9.91298 3.03732
32 1 -14.7471 9.61252 2.1624
33 1 -14.4944 8.75935 1.74453
34 1 -14.1761 7.85665 1.73181
35 1 -13.5844 7.10256 1.66048
36 1 -13.1564 6.26293 1.81278
37 1 -12.7106 5.421 1.84166
38 1 -11.9125 5.1273 2.14444
39 1 -11.7829 4.64635 2.93227
40 1 -11.5873 4.68617 3.88139
41 1 -11.948 4.38754 4.70747
42 1 -12.4127 4.01937 5.45358
43 1 -12.8568 3.5615 6.1088
44 1 -13.0321 3.23624 6.93828
45 1 -13.6607 3.03871 7.61195
46 1 -14.4055 3.08249 8.26291
47 1 -15.1241 3.05355 8.91942
48 1 -15.661 3.19107 9.68579
49 1 -15.7408 2.89926 10.5419
50 1 -15.9835 3.04619 11.4424
51 1 -15.69 3.24049 12.2886
52 1 -15.154 3.52508 13.0564
53 1 -14.2089 3.66087 13.2956
54 1 -13.6265 4.15351 13.8988
55 1 -12.9026 4.77761 13.9868
56 1 -12.2944 5.52509 14.1275
57 1 -12.282 6.46669 14.3372
58 1 -12.5886 7.21156 14.8412
59 1 -12.9757 7.98846 15.2824
60 1 -13.2574 8.69605 15.809
61 1 -13.4063 9.64999 15.8827
62 1 -13.2809 10.5942 16.0104
63 1 -13.5186 11.4865 15.8474
64 1 -13.7012 12.3997 15.7694
ITEM: TIMESTEP
1460000
ITEM: NUMBER OF ATOMS
64
ITEM: BOX BOUNDS mm mm mm
-3.2000000000000000e+01 3.2000000000000000e+01
-3.2000000000000000e+01 3.2000000000000000e+01
-3.2000000000000000e+01 3.2000000000000000e+01
ITEM: ATOMS id type x y z
1 1 -0.0767042 8.7662 10.8951
2 1 -0.891282 8.6515 10.3727
3 1 -1.26434 8.23725 9.6312
4 1 -1.10078 8.05467 8.6866
5 1 -1.02289 8.43325 7.84643
6 1 -0.555764 8.89625 7.19502
7 1 -0.314735 9.54497 6.58757
8 1 -0.536369 10.3354 6.16574
9 1 -1.00294 11.2181 6.13041
10 1 -0.894623 12.1246 6.24367
11 1 -0.938899 12.9999 6.59191
12 1 -1.0701 13.873 6.98474
13 1 -1.00646 14.8196 7.07796
14 1 -1.80009 15.3599 6.94485
15 1 -2.73401 15.364 6.88021
16 1 -3.68946 15.1297 6.7888
17 1 -4.61794 15.4639 6.70993
18 1 -5.54023 15.6378 6.80147
19 1 -6.41343 15.8013 7.08712
20 1 -7.28801 16.1403 6.776
21 1 -8.11656 16.5769 6.548
22 1 -8.87335 16.8331 6.04535
23 1 -9.61113 17.1227 5.49597
24 1 -10.2899 17.426 4.93811
25 1 -10.8735 17.8386 4.382
26 1 -11.5078 18.1573 3.81649
27 1 -12.3345 18.1344 3.43706
28 1 -12.9302 17.428 3.62717
29 1 -13.4271 16.6138 3.37429
30 1 -13.8551 15.9573 2.90143
31 1 -14.2591 15.1524 2.75827
32 1 -14.1341 14.2742 3.08269
33 1 -13.4872 13.6693 2.72595
34 1 -13.0814 12.833 2.67775
35 1 -13.1148 12.1094 3.22889
36 1 -13.3487 11.2717 3.67263
37 1 -13.2379 10.4219 4.19372
38 1 -13.0033 9.66548 4.69776
39 1 -13.0478 9.02684 5.46206
40 1 -13.3668 8.45022 6.10869
41 1 -13.5737 7.66217 6.60214
42 1 -14.0852 6.97839 7.12308
43 1 -14.651 6.28545 7.15491
44 1 -15.215 5.61651 6.74982
45 1 -16.0977 5.27817 6.76312
46 1 -16.5566 4.66786 7.31507
47 1 -16.9205 4.18694 8.03717
48 1 -17.2331 3.95843 8.86937
49 1 -17.8709 3.68896 9.55107
50 1 -18.622 3.34071 10.1399
51 1 -18.7668 2.95946 10.9839
52 1 -18.6123 3.14855 11.8785
53 1 -18.6463 3.66536 12.6136
54 1 -18.8182 4.14401 13.4491
55 1 -19.0576 4.83092 13.979
56 1 -19.1195 5.754 14.1695
57 1 -18.8752 6.34964 14.779