ITEM: TIMESTEP
940000
ITEM: NUMBER OF ATOMS
64
ITEM: BOX BOUNDS mm mm mm
-3.2000000000000000e+01 3.2000000000000000e+01
-3.2000000000000000e+01 3.7997544107673932e+01
-3.2000000000000000e+01 3.2000000000000000e+01
ITEM: ATOMS id type x y z
1 1 18.8208 27.9346 -11.1303
2 1 18.515 27.2529 -10.547
3 1 19.3479 27.2159 -10.1343
4 1 20.2821 27.3401 -10.258
5 1 20.8892 27.3346 -9.50959
6 1 20.4458 27.7654 -8.74007
7 1 20.3924 28.5522 -9.14828
8 1 20.4122 28.9677 -8.28278
9 1 20.0408 29.2813 -7.42587
10 1 19.1441 29.3586 -7.51351
11 1 18.3932 29.0856 -7.90128
12 1 18.597 29.4845 -8.73118
13 1 18.3999 29.8687 -9.56491
14 1 17.9295 30.3996 -8.9712
15 1 17.6323 30.3088 -7.99905
16 1 16.8589 29.8033 -8.15496
17 1 16.3185 29.6769 -7.33472
18 1 16.3552 28.7307 -7.20429
19 1 15.7527 27.9598 -7.40638
20 1 14.8705 28.4278 -7.39749
21 1 14.7039 29.3477 -7.37517
22 1 14.7063 29.4829 -6.48284
23 1 14.3449 28.972 -5.74018
24 1 13.6891 28.9876 -5.02404
25 1 13.0023 29.2503 -4.36238
26 1 12.2261 29.733 -4.10836
27 1 11.6988 30.172 -4.75242
28 1 11.2925 30.9986 -4.61184
29 1 11.3438 31.6179 -5.37817
30 1 12.033 32.1291 -5.65377
31 1 12.9763 32.2109 -5.63457
32 1 13.7979 32.2872 -5.19541
33 1 14.2062 32.2266 -5.99331
34 1 14.3555 31.4806 -6.59484
35 1 14.2808 30.63 -6.29286
36 1 13.5061 30.8106 -6.84286
37 1 12.8332 30.8872 -7.48533
38 1 13.1041 30.7736 -8.40334
39 1 12.4486 31.1525 -9.02888
40 1 12.8331 31.3412 -9.85943
41 1 13.3228 31.8339 -9.18494
42 1 14.221 31.7879 -9.48886
43 1 14.9708 32.344 -9.4388
44 1 14.2505 32.8802 -9.66239
45 1 14.5577 32.9987 -8.75223
46 1 14.4167 33.8274 -9.04793
47 1 13.9527 34.6096 -9.29944
48 1 12.9465 34.582 -9.26681
49 1 13.0792 35.4387 -8.84969
50 1 12.5674 36.0125 -8.41557
51 1 12.7216 36.3991 -9.24252
52 1 13.1405 36.4961 -10.0658
53 1 14.025 36.8142 -10.2789
54 1 14.8865 37.2522 -10.1457
55 1 15.3886 37.9548 -10.5968
56 1 14.8872 37.7142 -11.3486
57 1 15.3034 37.9081 -12.1668
58 1 16.005 37.6612 -12.8364
59 1 16.1873 37.5673 -11.9432
60 1 17.0299 37.9905 -11.641
61 1 17.8721 37.6214 -11.6255
62 1 18.5765 37.1663 -12.058
63 1 19.4207 37.4908 -12.0317
64 1 19.4984 36.7917 -12.6484
ITEM: TIMESTEP
950000
ITEM: NUMBER OF ATOMS
64
ITEM: BOX BOUNDS mm mm mm
-3.2000000000000000e+01 3.2000000000000000e+01
-3.2000000000000000e+01 4.1219497601017387e+01
-3.2000000000000000e+01 3.2000000000000000e+01
ITEM: ATOMS id type x y z
1 1 26.5704 28.0834 -8.90149
2 1 26.415 27.1264 -8.9702
3 1 25.6806 26.526 -9.16073
4 1 25.2641 27.2414 -8.67518
5 1 25.0644 28.1511 -8.41006
6 1 24.1449 28.2888 -8.21414
7 1 23.2214 28.4141 -8.34245
8 1 22.399 28.0233 -8.62181
9 1 21.45 28.0914 -8.43247
10 1 21.5232 27.6411 -7.59397
11 1 21.6208 27.75 -6.69651
12 1 21.68 28.3143 -5.93968
13 1 21.0673 28.7351 -5.39983
14 1 20.356 29.0061 -5.85015
15 1 19.4481 29.0137 -5.55065
16 1 19.3695 29.7686 -4.98357
17 1 19.2774 29.2525 -4.20688
18 1 18.5571 28.9762 -3.68798
19 1 17.9141 28.3031 -3.82974
20 1 17.4103 27.5734 -4.14262
21 1 17.4379 26.7746 -3.76047
22 1 17.7201 27.1333 -2.94852
23 1 17.2451 26.8534 -2.20121
24 1 16.4238 26.8819 -1.72359
25 1 16.0179 27.6525 -1.89268
26 1 16.231 27.2509 -2.73187
27 1 16.2929 28.13 -3.01303
28 1 16.1192 27.8872 -3.90588
29 1 15.6055 27.954 -4.64878
30 1 14.7397 28.3056 -4.87179
31 1 14.4587 28.8362 -5.57024
32 1 14.0445 28.9978 -6.40374
33 1 14.1239 29.9018 -6.47526
34 1 14.0599 30.8441 -6.7322
35 1 14.5198 31.3147 -7.40612
36 1 15.1531 32.0804 -7.26557
37 1 15.1156 31.7649 -8.16613
38 1 14.7683 31.5095 -9.03248
39 1 13.8344 31.5198 -8.98269
40 1 13.6517 32.3462 -9.45626
41 1 13.9914 33.1657 -9.06707
42 1 14.3519 34.0059 -8.93951
43 1 14.9341 34.6421 -9.31619
44 1 15.8228 34.79 -9.15237
45 1 16.1698 35.6123 -9.39256
46 1 16.0332 36.2826 -10.0375
47 1 15.6285 36.1125 -10.8704
48 1 16.1128 36.071 -11.6524
49 1 16.3473 35.2001 -11.5792
50 1 16.9318 34.9346 -12.2796
51 1 17.3522 35.7279 -12.3878
52 1 18.212 35.4599 -12.2321
53 1 18.6291 36.3055 -12.4593
54 1 18.7684 36.0504 -11.612
55 1 19.0985 36.9283 -11.6113
56 1 18.8208 37.7548 -11.3118
57 1 18.472 38.0962 -12.14
58 1 18.0867 38.8902 -11.8961
59 1 17.3862 39.5002 -11.8211
60 1 17.9438 40.2984 -12.0828
61 1 17.8896 40.1317 -11.1491
62 1 18.8345 39.7719 -11.1585
63 1 19.4299 40.3479 -11.6537
64 1 19.718 41.2125 -11.7329
ITEM: TIMESTEP
960000
ITEM: NUMBER OF ATOMS
64
ITEM: BOX BOUNDS mm mm mm
-3.2000000000000000e+01 3.2000000000000000e+01
-3.2000000000000000e+01 3.8653309852801577e+01
-3.2000000000000000e+01 3.2000000000000000e+01
ITEM: ATOMS id type x y z
1 1 20.9641 36.8656 -6.53434
2 1 20.1246 36.9531 -6.87014
3 1 19.7281 37.7297 -6.68706
4 1 20.115 37.4696 -5.84536
5 1 20.4133 38.35 -5.97682
6 1 21.121 38.6463 -6.51023
7 1 21.903 38.403 -6.9662
8 1 22.4536 38.2037 -7.65075
9 1 21.7989 37.9444 -8.29083
10 1 21.0533 37.9691 -8.87917
11 1 20.4757 37.1559 -8.8986
12 1 21.131 36.9165 -9.57376
13 1 21.3241 36.0676 -9.76074
14 1 21.2014 35.6898 -10.6185
15 1 21.0845 35.1334 -9.88041
16 1 20.6068 35.0264 -8.99214
17 1 20.5725 34.7975 -8.06362
18 1 20.9796 34.7318 -7.17378
19 1 20.3186 34.4201 -6.53932
20 1 19.7691 33.9954 -5.8538
21 1 18.8161 34.0338 -6.13843
22 1 18.5916 33.1743 -6.58699
23 1 19.3099 32.8703 -6.05047
24 1 20.167 32.5415 -5.88676
25 1 20.5106 31.6739 -5.90729
26 1 19.8079 31.1287 -6.17533
27 1 20.4704 30.6693 -6.67603
28 1 20.5938 29.9525 -6.08834
29 1 20.0905 29.7983 -5.31731
30 1 19.5519 30.0004 -6.02839
31 1 19.4895 29.1587 -6.45152
32 1 18.8215 28.7223 -6.97275
33 1 18.1546 28.1193 -6.78461
34 1 17.7564 28.7147 -6.24028
35 1 17.5848 29.6452 -6.48486
36 1 17.5024 30.4461 -6.95471
37 1 16.8757 30.8575 -7.51539
38 1 17.1042 30.6716 -8.39237
39 1 16.5283 31.3569 -8.64315
40 1 16.2388 32.1105 -9.14366
41 1 15.3562 32.2937 -8.83649
42 1 15.3151 32.8597 -9.59395
43 1 14.5915 33.1487 -9.97759
44 1 14.5238 33.9263 -10.5647
45 1 15.1819 34.1241 -11.1725
46 1 15.5007 34.131 -12.0894
47 1 15.9581 33.5345 -12.6876
48 1 15.6886 34.3834 -13.0673
49 1 16.6266 34.4946 -12.9965
50 1 16.9699 33.9947 -12.2799
51 1 17.8415 34.1735 -11.9606
52 1 18.77 34.0015 -11.8267
53 1 18.559 33.218 -11.2999
54 1 19.1835 32.7918 -10.7422
55 1 19.8313 32.6786 -11.363
56 1 20.5245 33.0862 -10.866
57 1 21.2727 33.4735 -10.3792
58 1 21.4646 34.2555 -10.89
59 1 21.5491 34.7032 -11.674
60 1 21.7379 35.3918 -12.2982
61 1 21.5591 35.5197 -13.2334
62 1 21.4971 35.8242 -14.124
63 1 21.4116 35.7409 -15.1189
64 1 20.9299 34.8969 -15.0348
ITEM: TIMESTEP
970000
ITEM: NUMBER OF ATOMS
64
ITEM: BOX BOUNDS mm mm mm
-3.2000000000000000e+01 3.2000000000000000e+01
-3.2000000000000000e+01 3.7464114366378489e+01
-3.2000000000000000e+01 3.2000000000000000e+01
ITEM: ATOMS id type x y z
1 1 20.8217 34.5778 -2.127
2 1 21.3176 35.2333 -1.65456
3 1 22.2737 35.4783 -1.64965
4 1 22.6064 34.6818 -1.99862
5 1 23.4111 34.3694 -2.40273
6 1 23.0799 33.741 -1.80984
7 1 22.4999 33.3837 -2.50563
8 1 23.3347 33.4741 -2.88477
9 1 23.6244 33.4988 -3.74205
10 1 23.9633 33.3268 -4.67901
11 1 24.3318 33.8432 -5.47707
12 1 24.9392 34.0294 -6.13271
13 1 24.6152 33.9608 -7.01578
14 1 24.2241 33.7819 -7.85478
15 1 23.9356 34.2031 -8.62108
16 1 23.8359 34.4146 -9.51434
17 1 22.9803 34.1262 -9.6777
18 1 22.7399 33.9218 -8.77404
19 1 21.7904 34.0532 -8.74354
20 1 21.6495 33.211 -9.10973
21 1 21.1735 32.5913 -9.68825
22 1 20.6088 31.8986 -9.37768
23 1 20.3982 31.1418 -9.90259
24 1 20.2635 30.2468 -9.68171
25 1 20.6376 29.496 -9.20358
26 1 20.0864 29.7119 -8.42653
27 1 20.4125 29.0222 -7.88767
28 1 19.698 28.4439 -8.14865
29 1 19.1143 28.8813 -8.67517
30 1 18.3315 29.4371 -8.74846
31 1 17.8075 30.0114 -8.21195
32 1 17.7624 30.8698 -8.42366
33 1 17.1424 31.5949 -8.38089
34 1 16.3963 32.0469 -8.75856
35 1 15.5112 31.7568 -8.9526
36 1 14.7038 31.3483 -9.25145
37 1 14.7375 32.3104 -9.29068
38 1 14.2783 33.1383 -9.03833
39 1 14.1791 32.4233 -8.37658
40 1 13.4216 31.9893 -8.15894
41 1 12.584 31.8036 -7.70853
42 1 11.9549 32.3208 -8.16545
43 1 11.8738 32.4626 -9.11201
44 1 12.2468 32.191 -9.91535
45 1 13.1164 31.8301 -9.97465
46 1 12.8609 30.9625 -10.2381
47 1 12.7447 31.2156 -11.1453
48 1 13.4115 31.7819 -11.4355
49 1 12.991 32.6051 -11.4689
50 1 12.3837 33.1135 -11.9571
51 1 13.0308 33.8226 -12.0836
52 1 13.0398 34.6996 -12.4023
53 1 13.4575 35.5305 -12.2557
54 1 14.4257 35.3557 -12.0984
55 1 15.1047 35.1866 -12.7278
56 1 15.4106 35.915 -12.2499
57 1 16.2607 36.2036 -12.5793
58 1 16.7028 36.956 -12.935
59 1 17.1805 37.326 -12.103
60 1 17.2968 37.4571 -11.166
61 1 16.5125 37.2257 -10.6945
62 1 16.7434 36.5813 -10.077
63 1 16.9118 35.7056 -10.1692
64 1 16.1582 35.8076 -9.5275
ITEM: TIMESTEP
980000
ITEM: NUMBER OF ATOMS
64
ITEM: BOX BOUNDS mm mm mm
-3.2000000000000000e+01 3.2000000000000000e+01
-3.2000000000000000e+01 4.3107416128805724e+01
-3.2000000000000000e+01 3.2000000000000000e+01
ITEM: ATOMS id type x y z
1 1 21.064 37.2301 -6.77953
2 1 20.1942 37.3788 -6.40852
3 1 20.1299 36.5835 -6.86929
4 1 20.1736 36.255 -7.78541
5 1 20.2287 36.1023 -8.70592
6 1 20.5644 36.2996 -9.56922
7 1 21.4119 35.9663 -9.14035
8 1 22.0979 35.7951 -9.73922
9 1 21.7974 35.6948 -10.6136
10 1 22.1842 34.9144 -11.0349
11 1 21.3282 34.5351 -10.8715
12 1 20.9435 34.5718 -9.95255
13 1 21.7089 34.0874 -9.61978
14 1 22.4441 33.537 -9.45531
15 1 22.6853 33.3636 -10.3528
16 1 23.4302 33.6782 -10.8829
17 1 24.2845 33.3129 -10.8185
18 1 24.0202 32.5264 -11.2282
19 1 24.7362 32.0317 -11.563
20 1 24.2276 31.4824 -11.0784
21 1 23.6783 31.2238 -11.7909
22 1 22.9642 30.9869 -12.3338
23 1 22.4019 30.5256 -11.6921
24 1 22.9648 30.8248 -10.9242
25 1 22.2623 31.4157 -11.1954
26 1 21.3253 31.6522 -11.2407
27 1 20.7605 31.6485 -11.9369
28 1 19.9433 31.4205 -11.4309
29 1 20.2467 30.5977 -11.7455
30 1 20.3961 30.4629 -12.6619
31 1 19.9636 31.1808 -13.0837
32 1 20.5056 31.2935 -13.8644
33 1 20.3545 32.1898 -14.0799
34 1 19.9554 31.6999 -14.7562
35 1 19.0595 31.8258 -14.6174
36 1 18.8928 32.7452 -14.7109
37 1 18.4561 33.5712 -14.7643
38 1 17.6149 33.268 -15.1056
39 1 17.475 32.7918 -14.2985
40 1 16.9061 32.1815 -14.7384
41 1 16.1618 32.606 -14.3312
42 1 15.5669 33.3154 -14.4817
43 1 15.582 34.2448 -14.8295
44 1 15.1932 35.0336 -15.0724
45 1 14.5325 35.2016 -14.3939
46 1 13.6324 35.3782 -14.4053
47 1 13.1797 35.959 -13.8187
48 1 12.3696 35.7497 -13.4203
49 1 12.5605 35.6485 -12.4634
50 1 13.2335 36.2393 -12.1836
51 1 13.4982 36.6918 -11.3889
52 1 14.2872 36.6369 -10.9487
53 1 14.7533 37.3939 -11.2663
54 1 14.7423 38.2561 -10.8472
55 1 15.4369 38.3457 -11.4817
56 1 15.6858 39.1708 -12.0083
57 1 16.1471 39.5546 -12.7537
58 1 16.4062 40.5033 -12.7077
59 1 15.9545 41.3149 -12.7961
60 1 15.4956 41.6011 -12.0436
61 1 15.2888 42.4001 -12.5202
62 1 14.8129 43.1004 -13.0542
63 1 14.4355 42.9878 -13.9181
64 1 15.1912 42.4854 -13.7498
ITEM: TIMESTEP
990000
ITEM: NUMBER OF ATOMS
64
ITEM: BOX BOUNDS mm mm mm
-3.2000000000000000e+01 3.2000000000000000e+01
-3.2000000000000000e+01 4.3765392315941874e+01
-3.2000000000000000e+01 3.2000000000000000e+01
ITEM: ATOMS id type x y z
1 1 16.2081 33.3718 -6.57113
2 1 16.764 34.1801 -6.60244
3 1 17.6711 34.0343 -6.45416
4 1 18.0224 34.6592 -5.83559
5 1 18.9271 34.9066 -5.93035
6 1 19.7445 34.6391 -5.61989
7 1 20.366 34.7888 -6.30349
8 1 20.7174 35.3086 -7.11097
9 1 21.3461 35.4422 -7.73926
10 1 20.877 35.7221 -8.47455
11 1 20.5833 36.384 -9.08045
12 1 21.0814 36.78 -9.76578
13 1 22.0131 36.8003 -9.91261
14 1 21.8834 35.9966 -9.42858
15 1 22.7305 35.5674 -9.61012
16 1 23.7019 35.781 -9.63612
17 1 24.0631 35.5998 -10.4556
18 1 24.4151 36.0231 -11.2342
19 1 24.8064 35.3296 -11.7116
20 1 24.451 34.5909 -11.2071
21 1 23.9234 34.1813 -10.5825
22 1 23.241 33.512 -10.532
23 1 22.8543 32.651 -10.4877
24 1 21.9183 32.578 -10.3546
25 1 21.0005 32.4135 -10.0704
26 1 21.1973 32.8979 -9.29613
27 1 20.9735 33.7282 -9.56165
28 1 21.6299 33.9748 -10.174
29 1 21.5659 34.1282 -11.0742
30 1 21.8827 33.5805 -11.741
31 1 21.343 32.8257 -11.9725
32 1 21.0929 32.3572 -12.7418
33 1 20.3936 32.969 -12.9365
34 1 21.0391 33.5119 -13.3899
35 1 20.593 33.6143 -14.2241
36 1 20.5225 33.9205 -15.1082
37 1 19.7003 33.9108 -15.7074
38 1 19.3682 34.2287 -14.9301
39 1 18.9472 34.513 -14.1683
40 1 18.2851 35.0555 -13.8363
41 1 18.0322 34.6398 -13.0588
42 1 18.562 34.4252 -12.3174
43 1 18.5743 34.0578 -11.4457
44 1 18.1372 33.7274 -10.7057
45 1 17.5435 34.2028 -11.2782
46 1 17.0536 35.0071 -11.2405
47 1 17.0892 35.9668 -11.4904
48 1 17.7717 36.5479 -11.7375
49 1 18.126 37.1926 -11.1548
50 1 17.3033 37.4689 -11.4837
51 1 17.5822 38.3552 -11.4561
52 1 17.0773 39.1449 -11.2143
53 1 17.9094 39.3157 -10.8054
54 1 18.5879 39.0399 -10.1972
55 1 19.3278 39.1971 -10.845
56 1 19.5851 40.1132 -10.9112
57 1 18.9725 40.7854 -10.4407
58 1 18.4179 41.4017 -9.99193
59 1 18.5585 42.338 -9.81308
60 1 18.1307 42.4129 -10.6345
61 1 17.9123 43.2915 -10.4898
62 1 17.1374 43.7272 -10.7286
63 1 16.2161 43.7584 -10.8823
64 1 16.1022 43.1638 -11.6388
ITEM: TIMESTEP
1000000
ITEM: NUMBER OF ATOMS
64
ITEM: BOX BOUNDS mm mm mm
-3.2000000000000000e+01 3.2000000000000000e+01
-3.2000000000000000e+01 4.3925296503805122e+01
-3.2000000000000000e+01 3.2000000000000000e+01
ITEM: ATOMS id type x y z
1 1 21.7431 36.2822 -7.48472
2 1 21.8329 36.887 -6.77315
3 1 21.493 37.3298 -5.94711
4 1 21.348 36.4424 -5.4971
5 1 20.5572 36.9562 -5.48661
6 1 19.9346 36.2346 -5.44952
7 1 19.588 35.9191 -6.25946
8 1 19.4187 35.0835 -6.73743
9 1 19.1968 34.4541 -6.05153
10 1 19.7672 34.2332 -5.27434
11 1 19.5948 33.2833 -5.36058
12 1 20.5162 33.0176 -5.5528
13 1 21.3821 32.934 -5.12181
14 1 21.8325 32.4336 -5.80832
15 1 21.1855 32.501 -6.49392
16 1 20.8133 32.6277 -7.34155
17 1 20.7103 32.828 -8.32109
18 1 19.9685 33.2973 -8.61263
19 1 19.4276 32.495 -8.70438
20 1 19.2144 33.1764 -9.36048
21 1 19.2256 33.9941 -9.85249
22 1 19.3658 33.6634 -10.6658
23 1 19.4768 32.8998 -11.2171
24 1 20.1625 33.5195 -11.552
25 1 19.9536 33.7937 -12.4729
26 1 19.1693 34.1732 -12.8067
27 1 18.5767 34.7783 -13.2271
28 1 18.1428 34.782 -14.1422
29 1 17.3182 35.1697 -14.401
30 1 16.7636 35.9008 -14.3441
31 1 16.1691 36.3571 -13.8042
32 1 15.7057 35.9867 -14.5415
33 1 14.7712 36.2191 -14.5231
34 1 14.8587 37.1844 -14.5988
35 1 15.5701 37.2807 -13.9938
36 1 15.7261 38.0313 -13.3543
37 1 16.5623 38.2372 -13.5985
38 1 17.1948 38.4508 -14.2341
39 1 17.3577 38.7987 -15.089
40 1 18.1022 38.9632 -14.5365
41 1 18.269 39.5013 -13.713
42 1 19.0088 39.6961 -13.1182
43 1 19.7575 39.181 -12.8536
44 1 20.0711 38.3161 -12.5635
45 1 20.8669 38.2263 -12.0452
46 1 20.7882 38.5108 -11.1568
47 1 19.9821 38.9898 -11.358
48 1 19.4423 39.5532 -11.862
49 1 18.9217 40.2614 -12.1405
50 1 18.0754 40.548 -12.6055
51 1 18.3634 41.4912 -12.6521
52 1 18.5705 42.2415 -12.1483
53 1 19.0648 42.4857 -11.4138
54 1 19.3611 43.4118 -11.2762
55 1 19.2411 43.8982 -12.0662
56 1 18.3423 43.6042 -12.001
57 1 17.503 43.9183 -12.1371
58 1 17.0625 43.0975 -12.502
59 1 16.9184 42.4644 -11.8314
60 1 16.7728 42.0778 -10.9921
61 1 16.1353 42.3679 -10.3384
62 1 15.4476 41.7612 -10.174
63 1 15.2258 41.0945 -10.8123
64 1 15.286 40.2882 -10.4049
ITEM: TIMESTEP
1010000
ITEM: NUMBER OF ATOMS
64
ITEM: BOX BOUNDS mm mm mm
-3.2000000000000000e+01 3.2000000000000000e+01
-3.2000000000000000e+01 4.1631444731185823e+01
-3.2000000000000000e+01 3.2000000000000000e+01
ITEM: ATOMS id type x y z
1 1 22.1217 35.4478 -10.3217
2 1 21.7212 35.5462 -9.45341
3 1 22.289 35.9334 -8.8143
4 1 21.5825 36.1627 -8.19537
5 1 21.1162 35.3846 -8.12635
6 1 20.9997 35.0294 -7.26413
7 1 20.1245 34.7016 -7.35713
8 1 20.0124 34.5289 -6.46678
9 1 20.1062 34.5671 -5.52527
10 1 20.033 33.7991 -4.94003
11 1 19.5915 32.96 -5.13309
12 1 20.2403 32.3882 -5.49088
13 1 19.8444 31.537 -5.49828
14 1 19.3701 31.9026 -6.21757
15 1 19.2329 30.973 -6.1875
16 1 18.7739 31.1831 -5.42313
17 1 18.2778 30.641 -4.88441
18 1 17.914 30.0198 -4.24304
19 1 17.082 29.6678 -4.48558
20 1 16.5734 29.0635 -5.03242
21 1 15.744 28.7974 -4.71884
22 1 15.4142 29.5885 -4.32633
23 1 15.2484 30.4006 -4.7645
24 1 14.8772 31.2287 -4.49166
25 1 15.6384 31.7227 -4.69298
26 1 16.2719 31.0526 -4.77377
27 1 16.8231 30.8036 -5.50206
28 1 16.8229 31.4769 -6.21034
29 1 17.1092 31.8144 -7.04965
30 1 16.8821 32.5813 -7.63302
31 1 16.6344 33.4146 -7.31117
32 1 16.7963 33.6122 -6.42663
33 1 16.1585 34.2357 -6.76457
34 1 16.0812 34.2879 -7.65956
35 1 15.5741 34.8839 -7.16869
36 1 15.7265 35.3512 -7.98975
37 1 15.681 35.0669 -8.90365
38 1 16.2864 35.5031 -9.45538
39 1 16.743 34.7056 -9.47262
40 1 17.4477 33.9966 -9.67718
41 1 17.1641 34.002 -10.5666
42 1 17.7045 34.7998 -10.6496
43 1 18.5806 34.5179 -10.7018
44 1 19.4061 34.8099 -10.9067
45 1 19.7651 35.3776 -11.5385
46 1 19.4489 36.2894 -11.6968
47 1 19.3932 36.2893 -12.6634
48 1 18.6438 36.6481 -13.0371
49 1 18.8468 37.2652 -13.7035
50 1 18.8675 38.234 -13.8348
51 1 18.1331 38.0131 -14.421
52 1 17.9432 38.8116 -13.9846
53 1 17.5709 38.2211 -13.2531
54 1 16.9844 38.0726 -12.4408
55 1 16.2267 38.0217 -11.8415
56 1 15.8024 37.9042 -11.033
57 1 15.9236 38.4733 -10.2788
58 1 16.7587 38.8429 -10.0428
59 1 16.7989 39.177 -9.18935
60 1 17.2315 39.991 -9.33205
61 1 16.9091 40.6083 -8.74574
62 1 17.2545 40.9558 -7.94827
63 1 17.9339 41.477 -7.60408
64 1 17.7558 41.6244 -6.71292
ITEM: TIMESTEP
1020000
ITEM: NUMBER OF ATOMS
64
ITEM: BOX BOUNDS mm mm mm
-3.2000000000000000e+01 3.2000000000000000e+01
-3.2000000000000000e+01 3.7535777190021761e+01
-3.2000000000000000e+01 3.2000000000000000e+01
ITEM: ATOMS id type x y z
1 1 21.747 32.6212 -9.28953
2 1 20.9127 32.9747 -9.02147
3 1 20.8903 33.2512 -8.17661
4 1 21.1898 32.9266 -7.30991
5 1 21.7984 33.448 -6.80886
6 1 21.8727 32.9343 -6.01215
7 1 22.7176 33.3209 -6.14567
8 1 22.3441 34.1135 -5.73229
9 1 22.8749 34.4013 -5.07146
10 1 23.2324 33.5457 -4.88452
11 1 23.9124 32.9384 -4.6877
12 1 23.8562 33.0281 -5.59787
13 1 23.4985 32.1965 -5.77011
14 1 22.8427 31.5189 -5.67465
15 1 22.7804 30.7917 -5.07944
16 1 22.3279 31.616 -4.72969
17 1 22.7365 31.2395 -3.97865
18 1 21.8992 31.1211 -3.51666
19 1 21.0046 30.9932 -3.42323
20 1 19.9758 30.841 -3.38727
21 1 19.4407 30.2051 -3.83102
22 1 18.8809 29.6662 -4.4067
23 1 19.1833 30.4002 -4.98596
24 1 19.9118 30.9542 -5.15666
25 1 20.8 30.9872 -5.48124
26 1 20.1904 31.4351 -6.02514
27 1 20.2248 30.792 -6.77996
28 1 20.6324 29.9778 -7.02138
29 1 20.0915 29.3885 -7.56875
30 1 19.8534 29.0783 -8.44936
31 1 19.0434 28.7683 -8.75171
32 1 19.4637 28.7951 -9.58426
33 1 19.7983 29.691 -9.44598
34 1 19.5066 30.3157 -8.7763
35 1 18.9569 30.7236 -8.0338
36 1 18.4624 31.5263 -8.0116
37 1 17.5049 31.473 -7.91797
38 1 17.2279 32.3664 -7.64124
39 1 16.5927 32.2628 -6.99383
40 1 16.3245 33.1611 -6.96942
41 1 15.5168 32.776 -7.08867
42 1 14.6915 32.5628 -6.75575
43 1 14.5179 32.5671 -5.86926
44 1 14.8124 32.7614 -4.97964
45 1 14.6841 33.6497 -4.75012
46 1 14.3692 34.5632 -4.57198
47 1 13.598 35.0374 -4.41313
48 1 13.7209 35.5443 -5.20267
49 1 14.0024 35.8904 -6.01906
50 1 14.6686 35.2464 -5.8228
51 1 14.3198 35.0256 -6.6341
52 1 14.9184 34.9169 -7.37296
53 1 15.4796 35.4433 -7.90546
54 1 16.3191 35.6348 -7.54844
55 1 16.3976 36.4745 -7.10891
56 1 16.7131 37.1651 -7.68002
57 1 17.4316 37.4468 -8.2262
58 1 17.8899 37.243 -7.47456
59 1 18.527 37.5288 -6.81209
60 1 19.3823 37.4989 -6.37881
61 1 19.708 37.1608 -5.57112
62 1 20.0851 36.3568 -5.73819
63 1 20.054 36.2538 -4.77128
64 1 20.8906 36.5189 -5.14629
ITEM: TIMESTEP
1030000
ITEM: NUMBER OF ATOMS
64
ITEM: BOX BOUNDS mm mm mm
-3.2000000000000000e+01 3.2000000000000000e+01
-3.2000000000000000e+01 3.6271499229816861e+01
-3.2000000000000000e+01 3.2000000000000000e+01
ITEM: ATOMS id type x y z
1 1 25.9637 30.47 -4.5956
2 1 26.6755 31.1255 -4.68532
3 1 26.2531 31.4888 -5.422
4 1 26.0092 32.0057 -6.20172
5 1 26.5729 32.6397 -6.7346
6 1 26.8749 31.9252 -7.2101
7 1 26.245 31.6976 -7.90938
8 1 25.3129 31.5355 -8.12607
9 1 24.4468 31.3876 -7.89026
10 1 23.9545 30.6672 -8.30233
11 1 23.5057 30.2152 -7.61522
12 1 23.3811 29.5195 -6.96504
13 1 24.0847 30.0927 -6.70606
14 1 24.1129 29.3485 -6.11958
15 1 23.3524 29.1469 -5.65189
16 1 22.8757 29.77 -5.16794
17 1 23.2845 29.5999 -4.3954
18 1 22.8934 29.2293 -3.64882
19 1 22.1886 29.8525 -3.8017
20 1 22.0474 30.7446 -3.44081
21 1 21.2188 31.1962 -3.5852
22 1 20.3833 31.3338 -3.17366
23 1 19.9499 30.6977 -2.68466
24 1 19.0277 30.4859 -2.93732
25 1 18.7113 29.7909 -2.3399
26 1 18.2427 30.5303 -2.03015
27 1 17.6703 30.8494 -2.77148
28 1 17.584 30.9274 -3.69922
29 1 17.5255 31.8305 -3.83549
30 1 17.3846 31.6022 -4.75307
31 1 18.1965 32.0248 -5.0247
32 1 19.114 32.0475 -5.26221
33 1 18.6909 31.8295 -6.07832
34 1 17.8432 32.1139 -6.22594
35 1 16.9442 31.9439 -5.93057
36 1 16.4628 31.1617 -5.94875
37 1 15.8334 31.7646 -5.71977
38 1 15.8363 32.6711 -5.65886
39 1 14.9927 32.9584 -5.83863
40 1 14.6858 32.5011 -6.61129
41 1 13.9379 33.0602 -6.72207
42 1 13.4331 32.3914 -7.0471
43 1 13.3783 31.5275 -6.60711
44 1 13.5741 30.631 -6.85113
45 1 12.7554 30.4071 -7.18764
46 1 12.1482 30.5707 -7.82853
47 1 11.5054 30.988 -8.42921
48 1 11.7052 31.8435 -8.12368
49 1 12.2502 32.245 -8.74111
50 1 13.0904 32.766 -8.72419
51 1 14.0014 32.9661 -8.78619
52 1 13.7691 33.7493 -9.17211
53 1 13.9481 34.0885 -9.99614
54 1 14.4826 33.4247 -10.3545
55 1 15.4115 33.3723 -10.1197
56 1 15.988 33.972 -10.5389
57 1 15.8179 34.9185 -10.4174
58 1 15.2932 35.4415 -10.9752
59 1 15.391 36.2645 -11.3333
60 1 16.2047 35.8536 -11.5435
61 1 17.1578 35.7415 -11.5214
62 1 17.9971 35.6777 -11.0905
63 1 18.6494 35.06 -11.314
64 1 19.3373 34.9011 -11.9068
ITEM: TIMESTEP
1040000
ITEM: NUMBER OF ATOMS
64
ITEM: BOX BOUNDS mm mm mm
-3.2000000000000000e+01 3.2000000000000000e+01
-3.2000000000000000e+01 3.6358722705143123e+01
-3.2000000000000000e+01 3.2000000000000000e+01
ITEM: ATOMS id type x y z
1 1 28.7558 35.5564 -3.13139
2 1 27.9025 35.7914 -3.47359
3 1 27.5305 35.7107 -4.32679
4 1 27.9314 36.3517 -4.95453
5 1 28.5032 36.0365 -5.66828
6 1 27.989 35.2222 -5.62393
7 1 27.5401 34.4432 -5.96119
8 1 27.2748 34.319 -5.06998
9 1 26.9947 34.3905 -4.18812
10 1 26.6702 33.5913 -4.55608
11 1 26.3502 32.8946 -4.01822
12 1 26.0454 32.4171 -4.74339
13 1 26.313 31.9636 -5.54307
14 1 25.6486 31.3599 -5.16839
15 1 25.5241 30.6644 -5.80047
16 1 25.8884 29.7942 -5.7628
17 1 25.4538 29.5869 -6.56152
18 1 25.5706 28.6518 -6.75653
19 1 25.21 28.5631 -7.65233
20 1 24.5791 28.2424 -7.0539
21 1 24.0695 27.4925 -7.21346
22 1 23.9303 26.7169 -6.70132
23 1 23.2148 27.1092 -6.27835
24 1 22.7512 26.7735 -6.99761
25 1 22.7213 25.9616 -6.49582
26 1 22.0651 25.638 -7.10175
27 1 21.1761 25.4841 -7.30301
28 1 20.5207 24.9336 -7.76285
29 1 20.5954 25.8236 -8.11237
30 1 20.2245 26.6544 -8.55555
31 1 19.346 27.0524 -8.65895
32 1 18.7701 27.3908 -9.31002
33 1 18.0637 27.7973 -9.7235
34 1 18.426 28.4911 -9.24406
35 1 17.9374 29.3014 -9.3617
36 1 17.607 29.7455 -8.58339
37 1 17.2889 30.2379 -9.29074
38 1 17.0611 30.7851 -8.59784
39 1 16.6291 30.182 -7.99558
40 1 15.8808 29.7486 -7.76404
41 1 15.2928 29.103 -7.36063
42 1 14.5551 29.2365 -7.89146
43 1 14.3132 29.9899 -8.40463
44 1 13.4422 30.1425 -8.75494
45 1 13.4137 30.6721 -9.50577
46 1 12.9119 30.2494 -10.2563
47 1 13.7297 29.9123 -10.5692
48 1 14.1398 30.7922 -10.7327
49 1 13.586 31.5964 -10.4667
50 1 14.0294 32.4386 -10.4431
51 1 14.9879 32.3208 -10.2819
52 1 15.7294 32.6555 -10.7373
53 1 15.8076 31.7759 -10.4288
54 1 16.6642 32.168 -10.5154
55 1 17.325 31.5144 -10.7711
56 1 17.7195 32.1283 -10.1813
57 1 17.9963 32.3096 -11.0655
58 1 17.4972 31.8707 -11.7634
59 1 18.3789 31.7187 -12.0339
60 1 18.542 31.3532 -11.1599
61 1 19.1825 31.2943 -10.4384
62 1 19.8647 31.2657 -9.73563
63 1 20.3877 31.7326 -10.3386
64 1 20.6936 31.9905 -11.1855
ITEM: TIMESTEP
1050000
ITEM: NUMBER OF ATOMS
64
ITEM: BOX BOUNDS mm mm mm
-3.2000000000000000e+01 3.2000000000000000e+01
-3.2000000000000000e+01 3.2132894416010323e+01
-3.2000000000000000e+01 3.2000000000000000e+01
ITEM: ATOMS id type x y z
1 1 28.3024 30.7685 -9.58858
2 1 28.3401 31.6964 -9.61648
3 1 27.454 31.5776 -9.3981
4 1 26.9214 31.4473 -8.63068
5 1 26.4414 30.8483 -9.18475
6 1 26.9651 30.089 -8.80665
7 1 26.6772 29.5615 -8.08106
8 1 26.1688 28.7404 -7.71965
9 1 26.2099 27.9503 -7.18854
10 1 26.6549 27.261 -7.64212
11 1 26.7116 26.8253 -8.44602
12 1 26.1341 26.0759 -8.42643
13 1 25.6593 25.4025 -7.82781
14 1 25.6864 24.6896 -8.38392
15 1 25.1167 24.256 -7.82648
16 1 24.5018 24.9424 -8.0881
17 1 23.6689 25.4912 -8.04537
18 1 23.545 26.4147 -8.15904
19 1 23.3939 27.1079 -8.81475
20 1 22.5717 27.4607 -9.10828
21 1 22.0307 26.886 -9.53117
22 1 22.6456 26.5005 -10.1772
23 1 22.3628 26.2342 -11.0849
24 1 21.782 26.3483 -11.7589
25 1 21.238 27.1361 -11.9736
26 1 20.6291 27.3486 -11.2998
27 1 20.3363 26.4769 -11.59
28 1 20.0387 25.5369 -11.5131
29 1 19.1566 25.2237 -11.3121
30 1 18.8433 24.4846 -11.8646
31 1 17.9551 24.3854 -11.7621
32 1 17.5307 24.7409 -10.9648
33 1 17.9236 24.3192 -10.1948
34 1 18.6859 24.356 -9.67852
35 1 18.0652 24.8925 -9.17313
36 1 17.4194 25.2156 -8.51405
37 1 17.987 25.6007 -7.86779
38 1 17.9363 25.8338 -6.96798
39 1 18.0284 26.7116 -6.66952
40 1 17.3697 27.35 -6.30461
41 1 17.4973 28.2504 -6.23001
42 1 17.7309 29.0979 -6.56521
43 1 17.2352 29.4301 -7.36038
44 1 17.5405 29.9531 -8.11933
45 1 17.6013 30.7253 -7.45791
46 1 18.3838 30.3385 -7.08777
47 1 18.3996 29.5074 -7.5321
48 1 19.1299 28.9183 -7.62832
49 1 19.6631 28.4453 -8.24788
50 1 20.3838 29.0152 -8.26922
51 1 20.6669 28.8951 -9.1326
52 1 19.8271 29.2073 -9.307
53 1 20.3647 29.8113 -9.79423
54 1 20.1304 30.6877 -9.98338
55 1 19.3951 30.4026 -10.551
56 1 19.8346 29.7318 -10.9931
57 1 19.6996 30.3428 -11.6932
58 1 20.1421 30.854 -12.3778
59 1 20.7789 31.6001 -12.6294
60 1 21.7321 31.6806 -12.6009
61 1 22.3762 32.1259 -12.0831
62 1 22.3028 31.2487 -11.6745
63 1 21.5605 30.7305 -11.2374
64 1 22.3252 30.3771 -10.7613
ITEM: TIMESTEP
1060000
ITEM: NUMBER OF ATOMS
64
ITEM: BOX BOUNDS mm mm mm
-3.2000000000000000e+01 3.2000000000000000e+01
-3.2000000000000000e+01 3.2686844223718225e+01
-3.2000000000000000e+01 3.2000000000000000e+01
ITEM: ATOMS id type x y z
1 1 27.5859 28.8054 -5.27372
2 1 28.0722 28.803 -6.03428
3 1 28.297 29.4391 -6.76126
4 1 28.3894 30.2425 -7.23596
5 1 28.1052 31.1021 -7.2889
6 1 27.8364 31.4249 -6.41152
7 1 28.1205 32.2623 -6.5868
8 1 27.6738 32.6798 -7.29927
9 1 27.1456 32.1232 -7.80826
10 1 26.6755 31.361 -7.5481
11 1 26.6658 31.0472 -6.66667
12 1 26.1246 30.733 -5.95818
13 1 26.4424 30.9784 -5.10437
14 1 26.7721 30.9457 -4.23679
15 1 26.3497 30.3543 -3.69251
16 1 25.5534 29.9097 -3.43937
17 1 24.904 29.4399 -3.85574
18 1 25.106 30.1279 -4.48884
19 1 24.6144 30.6976 -3.92138
20 1 23.7409 30.4799 -3.97226
21 1 23.0208 29.9232 -3.8442
22 1 22.6453 29.0468 -3.93757
23 1 21.9304 28.7603 -3.4395
24 1 21.4751 28.4965 -2.66096
25 1 21.6827 27.7072 -2.11403
26 1 21.7411 26.9662 -2.6989
27 1 21.5352 26.7302 -3.58783
28 1 21.1918 25.9552 -3.01699
29 1 20.3316 25.7147 -2.70649
30 1 19.9293 26.254 -2.06025
31 1 19.9408 26.8609 -2.7395
32 1 19.5688 27.7311 -2.62576
33 1 18.6554 27.8065 -2.46093
34 1 18.8322 27.9705 -3.41103
35 1 18.2722 28.7232 -3.69622
36 1 17.2803 28.6742 -3.52834
37 1 16.4435 28.2912 -3.80636
38 1 16.2317 27.5218 -4.35734
39 1 15.7757 26.8421 -4.79663
40 1 14.9781 26.3652 -4.93769
41 1 14.2017 25.7778 -5.08265
42 1 13.6071 26.4275 -5.33824
43 1 12.717 26.6 -5.31435
44 1 12.8005 27.5066 -5.69053
45 1 13.399 28.1338 -5.30868
46 1 13.6964 28.7004 -4.68595
47 1 13.3546 29.3002 -5.31699
48 1 13.8653 29.9819 -5.64434
49 1 14.4303 30.7162 -5.81202
50 1 14.821 30.1111 -6.42991
51 1 14.73 29.5203 -7.15426
52 1 15.6996 29.5824 -7.12788
53 1 16.1106 29.4238 -7.95671
54 1 16.2796 28.4348 -8.04756
55 1 16.6514 28.0137 -8.7659
56 1 17.1521 28.1962 -9.52259
57 1 17.3524 27.406 -9.89579
58 1 17.6041 27.627 -10.769
59 1 18.0454 27.4757 -11.546
60 1 17.1674 27.0798 -11.5535
61 1 16.5971 27.6614 -11.9815
62 1 17.1435 28.364 -12.328
63 1 17.0946 28.7331 -11.4207
64 1 17.1888 29.6568 -11.627
ITEM: TIMESTEP
1070000
ITEM: NUMBER OF ATOMS
64
ITEM: BOX BOUNDS mm mm mm
-3.2000000000000000e+01 3.2000000000000000e+01
-3.2000000000000000e+01 3.5273430712118298e+01
-3.2000000000000000e+01 3.2000000000000000e+01
ITEM: ATOMS id type x y z
1 1 22.7714 35.2664 0.472215
2 1 21.9973 35.0831 0.0365804
3 1 21.6995 34.1949 0.32209
4 1 22.021 34.1124 -0.569655
5 1 22.6431 33.3802 -0.604784
6 1 22.6823 33.2722 -1.55927
7 1 23.1655 33.7369 -2.29225
8 1 23.2733 33.0784 -2.94234
9 1 23.3201 32.3456 -3.57388
10 1 23.0251 31.441 -3.51431
11 1 22.4095 32.0546 -3.86138
12 1 21.5687 31.776 -4.16437
13 1 21.248 31.0217 -3.71719
14 1 21.2888 30.0913 -3.67992
15 1 21.7591 29.3061 -3.46505
16 1 21.4438 29.1633 -4.33295
17 1 21.0231 28.6614 -3.68597
18 1 20.8084 27.6812 -3.75289
19 1 20.4802 27.8736 -4.60502
20 1 21.0374 28.0095 -5.33085
21 1 21.0898 27.8542 -6.22405
22 1 21.927 27.4916 -6.04773
23 1 21.9603 27.0506 -6.81276
24 1 21.0979 26.7571 -7.11589
25 1 21.3995 26.0432 -7.66777
26 1 21.9511 25.8809 -6.90022
27 1 22.376 25.2283 -6.43164
28 1 22.6935 24.4286 -6.92375
29 1 22.8284 23.5273 -7.1727
30 1 21.8617 23.5553 -7.44444
31 1 21.3094 23.5536 -8.21635
32 1 20.4804 23.7733 -8.51153
33 1 20.2683 24.6091 -8.81725
34 1 19.7225 25.3308 -8.48123
35 1 20.2349 26.1264 -8.6175
36 1 20.5121 25.5931 -9.30102
37 1 20.01 25.8258 -10.0383
38 1 19.2322 25.3912 -9.76806
39 1 18.7679 25.2217 -10.5608
40 1 18.3305 24.7099 -11.2282
41 1 18.7315 23.9699 -10.7311
42 1 18.3956 23.2557 -10.2192
43 1 18.8709 23.8258 -9.54059
44 1 19.4735 23.1264 -9.79078
45 1 19.2122 22.4664 -10.4511
46 1 18.7793 21.8008 -10.8709
47 1 18.1635 21.8282 -11.6009
48 1 18.4445 22.3211 -12.3814
49 1 17.4743 22.4396 -12.4678
50 1 16.7331 22.6597 -12.9472
51 1 16.0008 22.0822 -12.8981
52 1 15.5638 21.2353 -13.0257
53 1 15.5415 20.9853 -13.9719
54 1 14.9537 20.2058 -14.029
55 1 15.5724 19.9725 -14.7004
56 1 16.3441 20.4473 -15.0239
57 1 16.9187 20.4482 -15.7507
58 1 17.7114 20.8584 -15.5439
59 1 18.0782 19.9924 -15.6373
60 1 18.7349 19.6079 -16.1995
61 1 17.9923 19.8006 -16.7249
62 1 17.4101 19.1223 -16.4242
63 1 17.1093 18.7992 -17.2349
64 1 17.4899 19.5092 -17.7635
ITEM: TIMESTEP
1080000
ITEM: NUMBER OF ATOMS
64
ITEM: BOX BOUNDS mm mm mm
-3.2000000000000000e+01 3.2000000000000000e+01
-3.2000000000000000e+01 3.5749353584762382e+01