ITEM: TIMESTEP
680000
ITEM: NUMBER OF ATOMS
64
ITEM: BOX BOUNDS mm mm mm
-3.2000000000000000e+01 3.2000000000000000e+01
-3.2000000000000000e+01 3.2000000000000000e+01
-3.2000000000000000e+01 3.2000000000000000e+01
ITEM: ATOMS id type x y z
1 1 10.7906 18.9205 6.19591
2 1 11.4612 18.8314 5.54729
3 1 12.3502 18.4439 5.3016
4 1 12.204 17.6042 5.64191
5 1 11.4415 17.1158 5.32168
6 1 11.9537 17.3166 4.54692
7 1 12.0352 18.1819 4.09306
8 1 11.4278 18.9013 3.96342
9 1 10.9541 19.2957 3.182
10 1 10.2446 19.6064 2.75137
11 1 9.6992 19.4646 1.94954
12 1 9.07357 18.974 2.51401
13 1 8.17431 19.1674 2.79178
14 1 7.41944 19.6253 3.12002
15 1 7.49576 19.471 2.1636
16 1 8.08177 19.7044 1.4218
17 1 8.25578 18.8887 1.0099
18 1 8.27531 19.4984 0.292335
19 1 7.8809 20.0448 -0.400299
20 1 7.89107 20.0058 -1.36966
21 1 7.59733 19.8748 -2.35914
22 1 6.74412 19.7753 -2.79543
23 1 6.81831 20.5007 -3.4671
24 1 6.01332 20.2294 -4.03659
25 1 5.30446 20.0134 -4.60035
26 1 5.39218 20.6906 -5.25207
27 1 5.76693 21.3631 -5.78242
28 1 6.18187 21.6743 -6.58747
29 1 6.93492 22.0916 -6.27683
30 1 6.7979 22.7542 -6.91016
31 1 6.65188 22.9125 -7.86565
32 1 6.26155 23.6667 -7.39675
33 1 5.43117 23.6667 -7.8305
34 1 4.91258 24.3341 -8.30879
35 1 5.11927 23.7623 -9.07164
36 1 4.8581 23.6406 -9.97954
37 1 4.96653 22.8439 -10.507
38 1 4.12184 22.6573 -10.8106
39 1 4.13794 22.829 -11.7466
40 1 4.69606 22.1226 -11.9851
41 1 5.02259 22.7598 -12.5473
42 1 5.73934 22.3425 -12.9509
43 1 6.08672 22.8501 -13.6374
44 1 5.12427 22.8871 -13.5918
45 1 4.33158 23.4247 -13.6874
46 1 3.63123 22.7946 -13.9008
47 1 3.17152 21.966 -14.2428
48 1 3.89692 21.8203 -14.929
49 1 4.41743 21.693 -14.1678
50 1 3.94691 21.3334 -13.4757
51 1 3.97392 20.7004 -12.8222
52 1 3.37298 20.4389 -12.1362
53 1 2.67964 20.5363 -11.5073
54 1 3.00066 19.8832 -10.9123
55 1 3.21703 19.2201 -10.2924
56 1 3.56475 20.0751 -9.98119
57 1 3.75404 20.6994 -9.26728
58 1 4.6379 20.8439 -9.4827
59 1 5.36724 21.4694 -9.36944
60 1 4.78161 22.2515 -9.4601
61 1 5.62969 22.5089 -9.17078
62 1 6.52417 22.8108 -9.26837
63 1 6.27771 23.3908 -10.0002
64 1 6.52277 22.5605 -10.4644
ITEM: TIMESTEP
690000
ITEM: NUMBER OF ATOMS
64
ITEM: BOX BOUNDS mm mm mm
-3.2000000000000000e+01 3.2000000000000000e+01
-3.2000000000000000e+01 3.2000000000000000e+01
-3.2000000000000000e+01 3.2000000000000000e+01
ITEM: ATOMS id type x y z
1 1 12.0893 20.8742 2.54627
2 1 11.4912 20.1313 2.49199
3 1 10.6539 19.982 2.08133
4 1 10.1013 19.8748 1.28233
5 1 9.2932 20.3402 1.34216
6 1 8.7681 20.0365 0.635088
7 1 9.53004 20.2579 0.170404
8 1 10.4839 20.4102 0.2424
9 1 10.3361 19.7903 -0.451898
10 1 11.122 19.2976 -0.322451
11 1 10.8539 18.4205 -0.466193
12 1 10.8338 17.6527 0.106472
13 1 11.3386 16.8371 0.135885
14 1 10.6958 16.4082 -0.438995
15 1 10.3158 16.0607 -1.21346
16 1 10.4444 15.2008 -1.62264
17 1 10.7588 15.0393 -2.48948
18 1 10.4192 15.3318 -3.30475
19 1 11.0655 16.0349 -3.18659
20 1 10.5521 16.5867 -2.55888
21 1 9.63365 16.3913 -2.3799
22 1 9.25895 16.8538 -3.17759
23 1 8.98532 17.3302 -3.93835
24 1 9.225 16.4848 -4.23328
25 1 10.1399 16.5928 -4.40638
26 1 10.0647 17.5188 -4.09899
27 1 9.66321 18.3356 -4.21663
28 1 8.97476 18.0411 -4.76244
29 1 8.31779 18.8017 -4.95067
30 1 8.25655 19.2337 -5.7635
31 1 8.14404 19.0642 -6.67607
32 1 8.01864 19.9493 -6.92845
33 1 7.23677 20.4995 -6.84751
34 1 7.10392 20.173 -7.68687
35 1 7.02647 20.9802 -8.17866
36 1 7.75427 21.113 -7.61457
37 1 8.58036 20.9323 -7.98135
38 1 8.29233 20.8253 -8.87968
39 1 9.15428 21.2621 -9.11463
40 1 9.54201 21.5465 -9.891
41 1 10.1843 22.107 -10.2672
42 1 10.7675 21.9676 -9.55901
43 1 11.4121 21.504 -10.1185
44 1 11.5269 21.0836 -10.9466
45 1 11.218 21.8551 -11.3747
46 1 11.3635 21.9037 -12.269
47 1 11.6511 21.4788 -13.0066
48 1 12.0494 20.7779 -13.4036
49 1 12.2323 20.9492 -14.2911
50 1 11.9669 20.7708 -15.1943
51 1 11.0644 20.9441 -15.3351
52 1 10.8567 20.7608 -16.2165
53 1 10.716 19.8587 -16.5248
54 1 10.3439 19.9947 -15.6754
55 1 9.47536 20.308 -15.5645
56 1 8.55235 20.4775 -15.6259
57 1 7.70821 20.2937 -16.0129
58 1 7.69453 19.6871 -16.7538
59 1 7.7383 19.1764 -15.9286
60 1 7.9277 18.4815 -15.2593
61 1 8.26076 17.8508 -15.8183
62 1 7.47399 17.8916 -16.2963
63 1 7.13876 17.0643 -16.6102
64 1 6.94109 16.1783 -16.9873
ITEM: TIMESTEP
700000
ITEM: NUMBER OF ATOMS
64
ITEM: BOX BOUNDS mm mm mm
-3.2000000000000000e+01 3.2000000000000000e+01
-3.2000000000000000e+01 3.2000000000000000e+01
-3.2000000000000000e+01 3.2000000000000000e+01
ITEM: ATOMS id type x y z
1 1 9.39029 18.4768 0.372703
2 1 9.85893 18.4987 -0.460589
3 1 9.69108 19.2548 -0.899813
4 1 9.63774 19.0913 -1.83768
5 1 8.8458 18.6528 -1.60296
6 1 9.03425 17.8228 -1.20615
7 1 8.60423 18.3232 -0.565451
8 1 7.79581 18.6638 -0.997425
9 1 7.44028 18.9345 -1.90098
10 1 6.83861 18.4268 -2.45311
11 1 5.99601 18.3845 -2.78218
12 1 5.09027 18.3598 -2.42761
13 1 4.25401 18.4847 -2.93426
14 1 4.13564 18.4581 -3.90145
15 1 3.79091 18.0531 -4.68599
16 1 3.72106 17.1602 -4.28776
17 1 3.8587 16.2939 -3.97152
18 1 4.84302 16.2935 -4.01571
19 1 5.15013 16.8184 -4.75357
20 1 5.81917 17.1175 -5.37413
21 1 6.30772 17.6108 -4.74269
22 1 6.44467 18.1669 -5.49265
23 1 5.9368 17.9275 -6.28402
24 1 5.55537 17.2305 -6.80819
25 1 4.74298 16.7817 -6.69457
26 1 4.3525 16.9268 -7.50693
27 1 3.73877 17.6796 -7.56907
28 1 3.8401 18.5515 -7.96784
29 1 4.70468 18.6396 -7.68252
30 1 5.38874 19.1395 -7.36447
31 1 4.85457 19.8242 -7.60761
32 1 4.83272 19.9225 -8.56528
33 1 4.41416 19.7158 -9.35698
34 1 3.92765 19.3625 -8.63248
35 1 4.5758 18.6819 -8.75615
36 1 4.97395 18.8019 -9.60459
37 1 5.80091 19.283 -9.33394
38 1 6.26895 18.5027 -9.48004
39 1 7.13653 18.9464 -9.48849
40 1 7.37364 19.5191 -10.1688
41 1 7.20582 19.4387 -11.0916
42 1 8.12909 19.4962 -11.0436
43 1 8.22339 20.2998 -11.5672
44 1 8.05674 21.1231 -11.873
45 1 7.59647 21.544 -12.6443
46 1 8.59264 21.5206 -12.6658
47 1 8.41551 21.352 -13.5873
48 1 8.27893 21.7162 -14.4436
49 1 7.69864 21.1352 -14.8081
50 1 6.97689 21.6687 -15.0052
51 1 6.24931 21.2356 -14.5163
52 1 5.95223 20.3339 -14.2378
53 1 5.84435 20.1622 -15.1851
54 1 5.70849 20.6958 -15.939
55 1 4.9029 21.269 -15.9987
56 1 4.93433 21.6535 -16.8136
57 1 4.76545 20.7546 -17.0521
58 1 5.31305 20.0232 -17.2743
59 1 6.2354 20.4014 -17.3705
60 1 6.34916 21.3276 -17.2438
61 1 7.30018 21.1905 -17.3221
62 1 7.11024 21.6386 -18.151
63 1 7.33992 22.2891 -17.4953
64 1 7.88644 22.4226 -18.1869
ITEM: TIMESTEP
710000
ITEM: NUMBER OF ATOMS
64
ITEM: BOX BOUNDS mm mm mm
-3.2000000000000000e+01 3.2000000000000000e+01
-3.2000000000000000e+01 3.2000000000000000e+01
-3.2000000000000000e+01 3.2000000000000000e+01
ITEM: ATOMS id type x y z
1 1 9.60851 19.8317 -7.85195
2 1 9.39274 20.6638 -7.52993
3 1 8.66282 20.9853 -7.13168
4 1 8.02663 21.3719 -6.61939
5 1 7.53623 21.3803 -5.81243
6 1 6.67497 21.2354 -6.20154
7 1 6.77107 20.7341 -6.95657
8 1 7.04586 19.8728 -6.92313
9 1 7.55446 19.093 -6.57754
10 1 7.05766 19.4304 -5.86989
11 1 6.35628 19.412 -5.18823
12 1 6.15491 20.017 -4.4565
13 1 5.89249 20.8989 -4.7735
14 1 5.33231 21.6593 -4.5678
15 1 6.18046 21.9025 -4.92114
16 1 6.84182 22.5125 -4.61605
17 1 6.80597 23.3533 -4.17801
18 1 6.67285 24.0434 -3.49879
19 1 6.00943 24.6266 -3.1578
20 1 6.36658 25.4599 -3.56292
21 1 7.15483 26.0015 -3.59016
22 1 7.38912 25.7916 -4.47958
23 1 7.86366 25.5028 -5.24537
24 1 7.23293 24.882 -5.45796
25 1 7.40367 24.0285 -5.66988
26 1 7.37296 23.5819 -6.47128
27 1 6.61577 23.1362 -6.85442
28 1 6.16262 22.4567 -6.28147
29 1 5.36503 22.8944 -6.41178
30 1 4.42018 22.8477 -6.30938
31 1 3.5088 22.631 -6.18237
32 1 3.57837 23.5965 -6.17513
33 1 3.84194 24.1255 -6.93475
34 1 4.42376 23.6954 -7.48939
35 1 4.42582 24.6281 -7.6393
36 1 5.15088 24.8831 -8.18338
37 1 5.28735 24.0121 -8.50355
38 1 5.60918 23.0697 -8.41162
39 1 5.24728 22.2003 -8.43404
40 1 5.55192 21.6699 -7.7591
41 1 5.92232 20.8107 -7.9069
42 1 6.62158 20.8718 -8.57028
43 1 6.83847 21.3151 -9.38242
44 1 7.76788 21.4812 -9.4381
45 1 8.22824 21.6928 -10.2814
46 1 8.58439 21.8635 -11.0929
47 1 7.69718 21.4291 -11.3539
48 1 7.37442 20.5606 -11.4119
49 1 7.44685 20.0878 -12.2507
50 1 6.57212 20.3703 -12.0503
51 1 7.0308 20.8834 -12.6849
52 1 6.2695 20.4938 -13.1346
53 1 5.35655 20.5842 -13.5626
54 1 5.16067 21.2922 -12.9849
55 1 4.52157 20.6743 -12.6832
56 1 3.7881 20.9432 -12.0939
57 1 4.13604 21.574 -12.6776
58 1 3.35703 21.6737 -13.2698
59 1 3.1717 21.4054 -14.1518
60 1 2.68197 21.0825 -14.9165
61 1 2.63283 21.5684 -15.7107
62 1 2.19222 20.7651 -15.8395
63 1 1.39059 20.9238 -15.4186
64 1 0.533717 21.1746 -15.2058
ITEM: TIMESTEP
720000
ITEM: NUMBER OF ATOMS
64
ITEM: BOX BOUNDS mm mm mm
-3.2000000000000000e+01 3.2000000000000000e+01
-3.2000000000000000e+01 3.2000000000000000e+01
-3.2000000000000000e+01 3.2000000000000000e+01
ITEM: ATOMS id type x y z
1 1 14.9199 26.3618 -1.12659
2 1 15.3203 26.54 -1.96239
3 1 14.3878 26.2718 -2.07686
4 1 13.5579 26.3378 -2.44477
5 1 13.1636 26.224 -1.59054
6 1 12.33 25.8681 -1.8403
7 1 11.6299 25.7349 -2.44049
8 1 12.0653 26.3048 -3.04132
9 1 11.7048 26.2915 -3.87754
10 1 11.3947 25.4195 -4.03457
11 1 11.6776 24.8487 -4.6772
12 1 11.8933 24.0676 -5.09531
13 1 12.1072 23.9783 -6.06697
14 1 11.8618 24.7101 -6.54916
15 1 11.2661 25.1873 -6.0305
16 1 11.3025 25.5386 -6.9091
17 1 10.3734 25.3914 -6.7481
18 1 9.90748 26.2153 -6.79155
19 1 9.90576 27.1736 -7.02995
20 1 9.62362 27.974 -6.55148
21 1 9.2205 28.1851 -7.41786
22 1 8.58772 27.7407 -6.90469
23 1 9.0224 27.1224 -6.31805
24 1 9.86445 27.0047 -5.89863
25 1 9.58571 26.274 -5.44285
26 1 9.37999 25.4012 -5.27669
27 1 8.55222 25.6235 -4.88144
28 1 8.45503 26.5586 -4.97864
29 1 7.57055 26.7201 -5.16437
30 1 7.56265 26.5969 -6.07519
31 1 7.86491 26.3657 -6.92335
32 1 7.23308 25.6535 -7.12432
33 1 7.36476 25.4453 -8.02249
34 1 7.01426 24.5285 -8.06549
35 1 7.43269 23.7389 -8.50367
36 1 8.14484 23.1198 -8.39182
37 1 7.97302 22.3656 -7.85777
38 1 7.05746 22.1463 -7.83468
39 1 6.34217 22.498 -8.4841
40 1 6.58386 21.7933 -9.05333
41 1 7.10288 21.0478 -8.78743
42 1 6.34128 21.19 -8.22974
43 1 5.6144 20.8557 -8.7661
44 1 5.38289 21.4714 -9.41897
45 1 4.52857 20.9785 -9.31543
46 1 4.12905 20.1882 -8.96802
47 1 3.4074 20.1321 -9.61883
48 1 3.34664 20.9875 -9.17848
49 1 2.73625 21.6459 -9.52276
50 1 2.97028 22.1661 -10.2844
51 1 3.83334 22.4296 -10.0182
52 1 3.85236 23.273 -10.524
53 1 3.68947 24.1664 -10.6818
54 1 2.93716 24.4388 -11.165
55 1 3.36024 24.1535 -11.9891
56 1 4.08038 24.2782 -12.6008
57 1 4.67758 24.9742 -12.8296
58 1 4.53496 25.8877 -13.131
59 1 4.41235 26.7086 -13.6134
60 1 3.58705 27.1426 -13.5854
61 1 3.20175 26.7199 -12.8519
62 1 2.45295 26.9914 -12.3031
63 1 2.86362 27.4302 -11.6101
64 1 3.33517 27.7893 -10.9134
ITEM: TIMESTEP
730000
ITEM: NUMBER OF ATOMS
64
ITEM: BOX BOUNDS mm mm mm
-3.2000000000000000e+01 3.2000000000000000e+01
-3.2000000000000000e+01 3.2000000000000000e+01
-3.2000000000000000e+01 3.2000000000000000e+01
ITEM: ATOMS id type x y z
1 1 14.3007 29.1529 2.79343
2 1 15.0633 28.6795 2.49999
3 1 14.9541 27.804 2.25189
4 1 14.5255 28.12 1.47969
5 1 13.6916 28.1481 1.04912
6 1 13.7171 27.4327 0.47277
7 1 13.1772 27.6764 -0.30988
8 1 12.9449 27.1243 -1.0558
9 1 12.6397 26.2914 -0.816781
10 1 11.9598 25.6221 -0.793114
11 1 11.3466 25.6976 -1.4898
12 1 10.6356 25.1542 -1.71358
13 1 10.8692 25.6036 -2.55303
14 1 10.1484 25.9306 -3.15704
15 1 9.83543 25.522 -3.96294
16 1 8.89659 25.2703 -3.84101
17 1 7.93931 25.0861 -3.74844
18 1 7.94172 25.2881 -4.69062
19 1 7.44231 25.25 -5.52407
20 1 7.22279 25.3509 -6.42262
21 1 6.4915 25.4556 -7.05193
22 1 5.99428 24.727 -7.24685
23 1 6.31446 24.3544 -8.069
24 1 5.98078 24.3874 -8.8911
25 1 5.83798 24.3726 -9.78911
26 1 6.24223 24.508 -10.656
27 1 5.52236 24.642 -11.2297
28 1 4.69188 24.4336 -10.966
29 1 4.34223 24.1007 -11.7889
30 1 3.51678 24.1158 -12.2998
31 1 3.6613 23.7748 -13.1397
32 1 2.95633 23.25 -12.6993
33 1 3.67694 22.6512 -12.5083
34 1 3.65076 22.1444 -11.7313
35 1 3.21701 22.0679 -10.9139
36 1 2.94915 22.0754 -10.0086
37 1 2.33747 22.8233 -9.84148
38 1 2.26467 23.526 -10.4596
39 1 2.27349 23.9309 -9.62678
40 1 1.76604 23.9026 -8.8212
41 1 0.849528 24.0582 -8.59081
42 1 0.569863 24.6056 -7.8907
43 1 -0.212055 25.1247 -8.03807
44 1 -0.210764 24.6815 -8.84936
45 1 0.392469 25.3897 -8.92207
46 1 0.84999 25.6141 -9.67945
47 1 1.60902 26.1948 -9.65831
48 1 1.62876 26.2546 -8.67826
49 1 1.46019 26.0275 -7.7696
50 1 2.12064 25.7732 -7.18671
51 1 1.72766 25.6357 -6.35837
52 1 2.67353 25.4336 -6.08035
53 1 3.20306 24.9415 -5.53127
54 1 3.84247 25.5845 -5.28745
55 1 4.40717 24.89 -5.41757
56 1 5.23943 24.5908 -5.10157
57 1 5.88921 24.9094 -5.63338
58 1 6.01947 25.5505 -4.96412
59 1 5.24532 26.0568 -5.11998
60 1 4.92326 26.0013 -4.1861
61 1 4.95492 26.8868 -4.427
62 1 4.69328 27.1138 -3.56689
63 1 5.03889 26.8746 -2.74353
64 1 4.49946 26.8055 -1.9621
ITEM: TIMESTEP
740000
ITEM: NUMBER OF ATOMS
64
ITEM: BOX BOUNDS mm mm mm
-3.2000000000000000e+01 3.2000000000000000e+01
-3.2000000000000000e+01 3.2000000000000000e+01
-3.2000000000000000e+01 3.2000000000000000e+01
ITEM: ATOMS id type x y z
1 1 13.003 30.0041 -6.58314
2 1 12.5215 29.2141 -6.41712
3 1 11.9593 29.373 -7.20215
4 1 11.7774 28.9785 -8.06524
5 1 11.406 29.5171 -8.75184
6 1 11.599 29.1823 -9.61031
7 1 11.1669 28.3382 -9.60299
8 1 11.4444 27.9089 -8.83783
9 1 10.8425 27.8041 -8.10656
10 1 11.5616 27.4762 -7.6301
11 1 12.1184 27.7967 -6.96129
12 1 11.6965 27.9589 -6.17165
13 1 10.986 28.0212 -5.56526
14 1 10.4846 27.4239 -6.15662
15 1 10.0415 26.6695 -6.51862
16 1 10.1792 26.246 -7.36152
17 1 10.2116 25.6976 -8.08073
18 1 10.073 26.1195 -8.9235
19 1 9.26411 26.5453 -9.32387
20 1 9.53343 26.9416 -10.1416
21 1 10.1096 26.8231 -10.8734
22 1 10.0989 27.7552 -10.8217
23 1 10.1161 28.2758 -10.0242
24 1 9.15634 28.3708 -9.92473
25 1 9.25101 27.8022 -9.18584
26 1 8.3262 27.7061 -9.45617
27 1 7.57364 27.0232 -9.43693
28 1 7.2749 26.4642 -10.1148
29 1 7.095 27.3759 -10.2379
30 1 7.26219 27.5378 -11.1203
31 1 6.52635 27.749 -11.6813
32 1 6.47918 27.1368 -12.4103
33 1 6.83066 26.3953 -11.9823
34 1 6.14793 26.3591 -11.3395
35 1 5.33911 25.8468 -11.5093
36 1 5.02596 25.1746 -10.8974
37 1 4.51294 25.2378 -10.1441
38 1 4.66686 25.3601 -9.22491
39 1 3.89471 25.5452 -8.68062
40 1 3.66772 25.8443 -7.76043
41 1 3.36025 25.6668 -6.85884
42 1 2.85684 25.1749 -6.18396
43 1 2.873 26.0455 -5.78815
44 1 1.93034 26.2737 -6.10466
45 1 2.10821 26.9998 -5.48772
46 1 2.80314 27.0906 -4.80664
47 1 3.42523 27.5689 -5.33262
48 1 4.29571 27.4156 -5.00829
49 1 4.42493 28.0533 -4.36444
50 1 3.8339 28.762 -4.62852
51 1 3.04574 28.8697 -4.13584
52 1 3.1859 27.9618 -3.77823
53 1 2.43469 28.2037 -3.3129
54 1 2.7248 27.5062 -2.68694
55 1 2.11767 27.4971 -1.95841
56 1 1.47758 27.8423 -1.27152
57 1 1.36195 27.6257 -0.242714
58 1 1.23854 27.6294 0.726162
59 1 0.92739 26.7674 0.421126
60 1 0.13205 26.3277 0.64013
61 1 -0.163854 26.5921 1.49986
62 1 -1.06031 26.5143 1.78553
63 1 -1.21121 25.8996 1.01925
64 1 -1.91631 25.3217 0.895676
ITEM: TIMESTEP
750000
ITEM: NUMBER OF ATOMS
64
ITEM: BOX BOUNDS mm mm mm
-3.2000000000000000e+01 3.2000000000000000e+01
-3.2000000000000000e+01 3.2000000000000000e+01
-3.2000000000000000e+01 3.2000000000000000e+01
ITEM: ATOMS id type x y z
1 1 8.27415 28.8464 -5.96468
2 1 8.88309 29.1691 -6.66338
3 1 9.65316 28.9103 -6.18228
4 1 10.1342 29.5977 -6.57921
5 1 9.76834 29.0242 -7.27525
6 1 10.2874 28.3593 -7.77424
7 1 9.96795 28.8802 -8.48429
8 1 10.3938 29.2255 -9.23388
9 1 9.56179 29.4355 -9.62467
10 1 9.46146 29.1766 -10.4887
11 1 9.41217 28.3768 -10.9583
12 1 8.86825 27.7922 -10.4826
13 1 8.51516 27.0723 -10.0326
14 1 7.96035 27.5543 -9.37216
15 1 7.17693 27.1152 -9.03214
16 1 7.15256 26.3992 -9.65814
17 1 7.96424 26.0178 -9.80279
18 1 8.47554 25.2465 -9.76249
19 1 8.71786 24.6489 -9.09992
20 1 8.66751 24.0513 -8.39291
21 1 8.80338 23.1817 -8.72711
22 1 8.55978 22.3287 -9.0482
23 1 7.92159 21.6976 -8.62336
24 1 8.19194 21.9509 -7.79198
25 1 7.31132 21.6641 -7.56119
26 1 7.10673 22.4801 -7.98958
27 1 7.2745 23.1079 -7.23726
28 1 6.76375 23.4021 -6.50017
29 1 6.84426 24.2745 -6.43965
30 1 6.78275 24.6295 -7.29458
31 1 6.21331 25.2329 -7.60641
32 1 6.24661 26.1248 -7.30177
33 1 6.39326 26.361 -8.23394
34 1 5.79361 26.605 -8.92908
35 1 5.70709 26.9318 -9.77433
36 1 4.94127 26.4465 -9.53222
37 1 4.58568 26.268 -8.68613
38 1 4.68687 26.0088 -7.76774
39 1 5.00819 26.7058 -7.23416
40 1 5.05531 26.7928 -6.30012
41 1 4.0976 26.744 -6.01725
42 1 3.56536 27.0922 -5.33621
43 1 3.47783 27.9962 -5.05128
44 1 2.65089 27.5939 -4.82017
45 1 2.41319 26.791 -4.40835
46 1 1.49348 26.9391 -4.12371
47 1 1.10851 27.0044 -3.2616
48 1 0.698589 27.316 -2.46074
49 1 0.146326 27.2894 -1.71344
50 1 -0.262714 27.7209 -1.02721
51 1 -0.981686 27.7639 -0.408763
52 1 -1.02369 26.9855 0.0472916
53 1 -1.92232 27.0014 -0.196752
54 1 -2.48287 26.5034 0.426041
55 1 -2.74137 25.6666 0.726022
56 1 -2.90767 24.7439 0.837931
57 1 -3.69181 24.8201 1.39389
58 1 -4.49496 24.7127 1.94152
59 1 -5.36538 24.4591 1.62121
60 1 -4.96796 23.7022 1.21896
61 1 -5.92989 23.7261 1.10922
62 1 -6.66281 23.1897 1.32042
63 1 -7.04445 22.3159 1.34309
64 1 -6.65567 21.6416 0.839945
ITEM: TIMESTEP
760000
ITEM: NUMBER OF ATOMS
64
ITEM: BOX BOUNDS mm mm mm
-3.2000000000000000e+01 3.2000000000000000e+01
-3.2000000000000000e+01 3.2000000000000000e+01
-3.2000000000000000e+01 3.2000000000000000e+01
ITEM: ATOMS id type x y z
1 1 7.5047 31.4764 -9.12515
2 1 7.79711 31.4041 -8.18259
3 1 8.38695 30.6849 -8.28204
4 1 8.73051 29.8992 -7.87015
5 1 9.00013 29.2292 -8.43439
6 1 9.33314 28.3463 -8.2181
7 1 9.34584 27.9122 -7.36066
8 1 9.75778 27.0914 -7.34429
9 1 9.25689 26.8788 -6.53437
10 1 9.01306 26.3603 -5.79833
11 1 8.52852 25.8651 -6.49644
12 1 7.73208 25.3691 -6.32009
13 1 7.4271 24.5653 -5.92377
14 1 8.32716 24.574 -6.23759
15 1 9.11012 24.2074 -5.79316
16 1 10.0368 24.3761 -5.69817
17 1 10.7285 24.9747 -5.71803
18 1 11.2535 24.393 -6.2488
19 1 10.7407 24.843 -6.88479
20 1 10.104 25.0598 -7.45153
21 1 10.3732 24.5933 -8.22233
22 1 10.2453 24.0592 -8.98861
23 1 10.1005 23.1665 -9.15213
24 1 9.83294 23.3037 -8.24365
25 1 9.59607 22.8284 -7.47715
26 1 9.16144 22.3105 -6.81975
27 1 8.70174 22.6493 -6.05218
28 1 8.89684 22.9324 -5.18058
29 1 8.62171 23.7108 -4.72092
30 1 8.53115 23.5809 -3.76803
31 1 8.33004 22.709 -3.47645
32 1 7.61245 22.5485 -4.0219
33 1 6.73169 22.8658 -4.17425
34 1 6.7917 23.6222 -4.75652
35 1 6.2394 24.3819 -4.91738
36 1 5.62397 25.1086 -4.93843
37 1 4.75693 24.7252 -5.08256
38 1 4.09507 25.3375 -5.33796
39 1 4.13152 25.151 -6.2053
40 1 3.22434 25.1377 -6.02687
41 1 2.39078 24.6798 -6.07443
42 1 2.51601 24.7731 -7.04553
43 1 2.54878 25.1057 -7.91928
44 1 3.45078 25.0687 -8.06385
45 1 3.36853 25.7708 -7.47556
46 1 3.47469 26.5838 -7.92626
47 1 4.0075 27.3204 -8.28853
48 1 4.38164 28.2132 -8.13868
49 1 3.82472 28.9654 -7.81072
50 1 3.43791 29.693 -7.30419
51 1 3.02094 29.3075 -6.57123
52 1 3.19243 29.0943 -5.65985
53 1 2.7529 29.823 -5.10832
54 1 2.9657 30.2377 -4.20414
55 1 3.01059 30.1772 -3.22662
56 1 3.35671 30.5771 -2.47917
57 1 2.74852 31.2374 -2.40749
58 1 2.20247 30.6299 -1.98914
59 1 2.88252 30.3837 -1.3626
60 1 2.72847 30.5033 -0.438492
61 1 1.96711 30.3267 0.145951
62 1 1.07874 30.5329 -0.131313
63 1 1.06441 30.4855 -1.07666
64 1 0.140721 30.4656 -1.38423
ITEM: TIMESTEP
770000
ITEM: NUMBER OF ATOMS
64
ITEM: BOX BOUNDS mm mm mm
-3.2000000000000000e+01 3.2000000000000000e+01
-3.2000000000000000e+01 3.2000000000000000e+01
-3.2000000000000000e+01 3.2000000000000000e+01
ITEM: ATOMS id type x y z
1 1 13.7695 23.6959 -13.6362
2 1 13.4262 23.8547 -12.7797
3 1 13.5119 22.8767 -12.808
4 1 12.8102 23.2085 -12.293
5 1 12.9765 23.6617 -11.4369
6 1 12.6491 24.2018 -10.7619
7 1 12.8235 24.4198 -9.86892
8 1 13.6654 24.7978 -9.74737
9 1 14.3137 24.2952 -9.34458
10 1 14.2105 23.8785 -10.1873
11 1 13.9897 23.0486 -9.81252
12 1 14.8295 22.655 -9.60564
13 1 14.5512 21.8887 -9.21302
14 1 14.094 21.199 -9.63094
15 1 13.6992 20.6451 -10.2963
16 1 13.1015 21.2451 -10.7412
17 1 12.3468 21.7395 -10.384
18 1 12.3621 20.9167 -9.89421
19 1 12.3085 20.0834 -9.36886
20 1 11.7223 20.5132 -8.79452
21 1 11.0326 19.8178 -8.66187
22 1 11.2548 19.6186 -9.53474
23 1 10.4675 20.0319 -9.72816
24 1 9.80298 19.8966 -10.4511
25 1 10.4616 20.2916 -11.0003
26 1 10.7654 21.1909 -11.0723
27 1 10.993 22.0991 -11.1179
28 1 10.6485 22.5811 -10.3621
29 1 10.5735 21.8346 -9.86227
30 1 10.4057 21.685 -8.95652
31 1 9.52292 21.4525 -8.75035
32 1 9.22138 20.5237 -8.764
33 1 8.58745 20.7121 -8.12887
34 1 7.92462 21.3652 -8.07093
35 1 7.29628 21.9484 -7.80119
36 1 8.03953 22.4785 -7.73295
37 1 7.82278 23.2172 -7.1467
38 1 7.99455 24.2044 -7.02279
39 1 7.12686 24.5128 -6.94005
40 1 6.5221 24.8188 -6.3273
41 1 6.92504 24.6835 -5.39178
42 1 7.51749 25.4138 -5.51259
43 1 8.41587 25.7298 -5.6059
44 1 8.44717 26.6708 -5.5268
45 1 8.4052 27.6193 -5.87635
46 1 8.0949 27.9772 -5.05403
47 1 7.30569 28.4352 -4.81011
48 1 6.36225 28.5159 -4.65228
49 1 5.79452 29.2826 -4.47258
50 1 6.05708 29.5951 -3.61178
51 1 5.5053 30.2076 -3.18306
52 1 5.07913 30.0658 -2.37157
53 1 4.51268 29.4968 -1.81649
54 1 3.7002 29.1268 -1.55708
55 1 3.08378 29.6325 -1.10393
56 1 3.52417 30.3942 -0.721963
57 1 3.36433 29.9156 0.110424
58 1 2.86295 29.2276 0.509858
59 1 1.99649 29.6831 0.431189
60 1 1.24329 29.9942 0.959963
61 1 1.11688 30.4827 0.207302
62 1 0.872865 30.7462 -0.627178
63 1 1.16278 29.9004 -1.0676
64 1 1.96689 29.4261 -0.832039
ITEM: TIMESTEP
780000
ITEM: NUMBER OF ATOMS
64
ITEM: BOX BOUNDS mm mm mm
-3.2000000000000000e+01 3.2000000000000000e+01
-3.2000000000000000e+01 3.2000000000000000e+01
-3.2000000000000000e+01 3.2000000000000000e+01
ITEM: ATOMS id type x y z
1 1 15.0797 23.3008 -9.93543
2 1 14.1906 22.967 -9.77455
3 1 14.3043 23.7899 -9.28465
4 1 14.7112 23.5236 -8.46824
5 1 13.992 23.747 -7.89398
6 1 13.4459 23.011 -8.21501
7 1 12.9484 23.7284 -8.61725
8 1 12.6019 24.5979 -8.36443
9 1 12.7956 24.796 -7.44157
10 1 13.5191 24.7506 -6.86086
11 1 13.8861 23.9109 -6.85687
12 1 13.8762 23.2428 -6.25355
13 1 13.7879 22.6126 -5.5938
14 1 14.0778 22.9287 -4.73043
15 1 13.2323 23.3163 -4.47047
16 1 12.3618 23.1887 -4.10566
17 1 12.416 23.4422 -3.12571
18 1 11.9807 22.6879 -2.72874
19 1 11.6237 23.3126 -2.09904
20 1 11.4492 23.674 -1.24326
21 1 11.369 22.7434 -1.32876
22 1 12.0634 22.3807 -0.857378
23 1 12.8156 22.2481 -0.36897
24 1 12.4206 21.4834 -0.784488
25 1 11.792 20.888 -1.16776
26 1 11.3795 20.0484 -1.37546
27 1 11.377 20.1432 -2.33359
28 1 11.1345 20.35 -3.23839
29 1 10.1902 20.2182 -3.3304
30 1 9.80972 20.9287 -3.83313
31 1 8.88099 20.9516 -3.44942
32 1 7.96951 21.0906 -3.71436
33 1 7.34135 20.7776 -4.35257
34 1 6.86591 20.3442 -5.02809
35 1 6.72938 21.2082 -5.38083
36 1 7.07758 21.296 -6.24153
37 1 7.35127 22.1275 -6.00011
38 1 7.85698 22.7526 -5.48207
39 1 8.34075 23.4627 -5.89402
40 1 8.544 23.9566 -5.0742
41 1 8.87096 23.7523 -4.19062
42 1 9.3858 24.5124 -4.50329
43 1 9.24185 24.8631 -3.59339
44 1 8.74181 24.4161 -2.90129
45 1 8.54944 24.0251 -2.07428
46 1 7.74007 23.9773 -2.54976
47 1 7.65424 24.8764 -2.89096
48 1 7.9506 25.6737 -3.3036
49 1 8.2701 26.2755 -3.91506
50 1 8.671 26.6479 -4.7228
51 1 8.12958 27.3685 -4.27465
52 1 8.34922 28.2612 -3.94722
53 1 9.33031 28.2139 -3.86066
54 1 10.113 27.6077 -3.75365
55 1 9.51748 27.123 -3.15683
56 1 8.94241 27.6642 -2.61459
57 1 9.52042 28.4379 -2.78112
58 1 10.359 28.8584 -2.3885
59 1 10.9369 29.52 -2.11728
60 1 10.4221 29.7916 -1.4076
61 1 9.80701 29.9752 -0.718638
62 1 8.90155 30.2817 -0.593029
63 1 8.71137 29.2981 -0.640408
64 1 8.72791 29.2742 0.337454
ITEM: TIMESTEP
790000
ITEM: NUMBER OF ATOMS
64
ITEM: BOX BOUNDS mm mm mm
-3.2000000000000000e+01 3.2000000000000000e+01
-3.2000000000000000e+01 3.2000000000000000e+01
-3.2000000000000000e+01 3.2000000000000000e+01
ITEM: ATOMS id type x y z
1 1 22.4151 26.4919 -4.79865
2 1 21.6821 26.4363 -4.15642
3 1 21.34 25.5654 -4.27212
4 1 20.7548 24.9224 -4.06521
5 1 20.2121 24.5488 -3.43229
6 1 20.2063 23.7583 -3.92949
7 1 19.6827 24.0521 -4.61272
8 1 19.4234 23.1702 -4.86127
9 1 18.8368 22.7232 -4.25792
10 1 18.6874 22.3189 -3.4193
11 1 17.9695 22.1156 -3.92419
12 1 17.5225 21.7696 -3.19191
13 1 16.9335 22.3064 -2.65968
14 1 16.0716 22.7431 -2.57437
15 1 15.3161 23.1244 -2.23918
16 1 15.6602 23.9367 -2.64004
17 1 15.0211 23.5608 -3.2281
18 1 14.6802 23.3038 -4.07687
19 1 14.7987 22.4845 -3.68537
20 1 15.1827 22.1198 -4.45259
21 1 14.6134 21.3558 -4.31536
22 1 13.9902 20.9093 -4.96425
23 1 13.2613 20.7649 -4.43357
24 1 12.5817 21.4408 -4.65337
25 1 12.7982 22.0106 -3.90326
26 1 11.8724 22.1052 -4.11021
27 1 11.3761 22.5937 -4.70935
28 1 10.9113 23.1939 -5.28881
29 1 10.5202 22.8254 -6.02615
30 1 10.3497 22.0883 -5.52894
31 1 10.0621 21.3128 -5.07686
32 1 9.73877 20.873 -4.24999
33 1 10.2361 20.4296 -3.5687
34 1 9.39926 20.4151 -3.16732
35 1 8.9926 19.8318 -2.50465
36 1 9.23785 19.419 -3.30111
37 1 8.33504 19.3863 -3.59014
38 1 7.60452 18.9742 -3.95052
39 1 7.24708 19.7765 -4.28158
40 1 7.43123 20.07 -3.38385
41 1 7.7717 20.9498 -3.34805
42 1 8.44837 21.337 -3.82727
43 1 8.91587 22.0425 -3.48812
44 1 9.49038 21.6386 -2.80094
45 1 9.30835 22.4575 -2.3093
46 1 8.62736 22.8505 -2.77486
47 1 8.02525 23.4453 -3.25822
48 1 8.45277 24.3187 -3.44853
49 1 8.63028 23.7499 -4.23771
50 1 8.67667 23.3843 -5.06734
51 1 9.4933 23.2665 -5.5772
52 1 9.95351 24.0454 -5.32793
53 1 10.6124 24.0779 -4.58098
54 1 10.3816 24.9263 -4.95786
55 1 9.68711 25.2706 -5.54234
56 1 9.67989 25.5708 -6.48166
57 1 9.84982 26.0407 -7.27704
58 1 10.3785 26.7498 -7.77478
59 1 9.95996 26.9398 -8.5814
60 1 10.5772 27.622 -8.51814
61 1 9.91757 28.1667 -8.96619
62 1 9.82265 27.8819 -9.84606
63 1 10.4564 27.4338 -10.4073
64 1 11.1514 27.956 -10.6108
ITEM: TIMESTEP
800000
ITEM: NUMBER OF ATOMS
64
ITEM: BOX BOUNDS mm mm mm
-3.2000000000000000e+01 3.2000000000000000e+01
-3.2000000000000000e+01 3.2000000000000000e+01
-3.2000000000000000e+01 3.2000000000000000e+01
ITEM: ATOMS id type x y z
1 1 20.8364 26.9397 -5.42321
2 1 21.7816 27.0852 -5.39701
3 1 22.2119 27.2091 -4.55079
4 1 21.3222 27.3467 -4.22549
5 1 21.7141 27.4558 -3.36287
6 1 22.0425 26.5876 -3.25056
7 1 21.591 26.1933 -2.54339
8 1 21.011 25.4689 -2.73695
9 1 20.5761 25.0528 -2.007
10 1 19.8372 24.8382 -2.44457
11 1 19.1929 24.2243 -2.01632
12 1 18.4622 23.8508 -2.45322
13 1 18.2983 24.3362 -1.64912
14 1 18.6375 24.4798 -0.733874
15 1 18.6122 25.3476 -1.06262
16 1 17.91 25.9747 -0.905639
17 1 17.3735 26.0365 -1.60292
18 1 17.6377 26.5218 -2.36049
19 1 17.0468 26.762 -3.07915
20 1 16.4484 26.443 -3.7196
21 1 15.921 27.0457 -3.20951
22 1 15.0696 26.8506 -2.8266
23 1 14.7153 26.0079 -3.01237
24 1 15.0768 26.3336 -3.77854
25 1 15.6824 25.7765 -4.23093
26 1 14.879 25.5988 -4.71844
27 1 14.0125 25.657 -5.11649
28 1 14.0462 24.9784 -5.70597
29 1 14.4178 24.1398 -5.48649
30 1 15.0731 24.0072 -6.14955
31 1 14.9565 24.6173 -6.87077
32 1 14.569 25.2134 -7.49019
33 1 13.8173 24.6637 -7.67278
34 1 13.5508 23.8839 -7.18034
35 1 12.6705 23.5873 -6.68948
36 1 11.7696 23.8655 -6.59022
37 1 11.6709 23.8966 -5.6966
38 1 11.1323 23.1924 -5.31517
39 1 11.8314 22.7597 -4.83703
40 1 11.277 22.0393 -4.71528
41 1 10.9193 22.4472 -3.90334
42 1 10.0174 22.6106 -3.82163
43 1 10.172 22.045 -4.57165
44 1 9.72584 21.462 -5.17534
45 1 9.03435 22.1228 -5.26319
46 1 9.86026 22.4751 -5.63277
47 1 10.0655 22.4025 -6.49676
48 1 9.22429 22.3453 -6.92267
49 1 9.36929 22.5439 -7.88618
50 1 9.58546 22.765 -8.81538
51 1 8.75883 23.3146 -8.72838
52 1 8.72449 24.207 -8.93793
53 1 8.61295 24.0137 -8.00986
54 1 7.98781 24.7614 -8.23848
55 1 8.02485 25.4124 -8.97626
56 1 7.28024 25.7185 -9.47373
57 1 6.95439 25.7421 -8.62268
58 1 6.12749 25.466 -8.299
59 1 5.76378 24.7981 -7.85903
60 1 5.83574 23.8895 -7.85651
61 1 5.66809 23.0157 -7.81832
62 1 5.2596 23.0509 -6.98291
63 1 5.72547 22.3384 -6.65137
64 1 5.37327 21.8548 -5.9154
ITEM: TIMESTEP
810000
ITEM: NUMBER OF ATOMS
64
ITEM: BOX BOUNDS mm mm mm
-3.2000000000000000e+01 3.2000000000000000e+01
-3.2000000000000000e+01 3.2000000000000000e+01
-3.2000000000000000e+01 3.2000000000000000e+01
ITEM: ATOMS id type x y z
1 1 20.3614 16.8417 -4.43429
2 1 19.5712 16.7278 -4.87324
3 1 18.6917 17.1468 -5.15256
4 1 19.3294 17.8988 -5.17374
5 1 19.1724 18.5782 -4.48648
6 1 18.9477 18.8882 -5.30583
7 1 18.4348 19.6113 -5.55608
8 1 17.6064 19.674 -5.16476
9 1 16.9244 20.0297 -4.60974
10 1 16.7714 20.5468 -5.39312
11 1 15.9217 20.8033 -5.10883
12 1 16.3086 21.6092 -5.05321
13 1 16.6052 22.468 -5.1871
14 1 17.2427 23.0906 -4.90745
15 1 17.2666 23.9334 -5.53707
16 1 18.0072 24.2767 -5.12659
17 1 18.8358 24.5146 -5.73652
18 1 18.3338 23.9968 -6.39265
19 1 19.2091 23.9955 -6.70368
20 1 18.9231 23.2824 -7.20225
21 1 19.0774 22.3198 -7.18372
22 1 19.6062 22.6132 -6.48318
23 1 20.0327 21.7777 -6.25013
24 1 19.4455 21.8366 -5.44843
25 1 18.6103 22.2162 -5.30833
26 1 18.6907 21.8364 -6.15108
27 1 18.404 20.9459 -6.30129
28 1 17.8362 21.2048 -6.97441
29 1 17.0973 21.4156 -6.45385
30 1 16.1816 21.341 -6.73562
31 1 15.3042 21.5459 -6.87067
32 1 14.9828 22.3933 -6.65486
33 1 14.2064 22.7622 -6.99815
34 1 13.3181 22.6872 -7.3609
35 1 12.7803 23.449 -7.48969
36 1 12.345 23.8703 -6.77128
37 1 11.4782 24.3479 -6.72486
38 1 10.853 25.0279 -6.6827
39 1 10.9516 25.5856 -6.007
40 1 11.0171 26.42 -5.63615
41 1 10.0776 26.5272 -5.52431
42 1 9.57788 25.8072 -5.12404
43 1 8.77078 25.3118 -5.24967
44 1 8.61657 25.9913 -5.85895
45 1 8.56784 25.8436 -6.79204
46 1 8.35638 24.936 -6.98964
47 1 7.48564 24.5709 -6.9591
48 1 6.64667 24.7451 -7.24784
49 1 5.85788 24.4007 -7.68225
50 1 4.99623 24.2034 -7.83393
51 1 4.99173 23.2961 -7.80321
52 1 5.33694 22.5513 -7.44264
53 1 5.35134 21.6978 -7.13818
54 1 4.79849 21.0904 -7.6132
55 1 5.09201 20.2618 -7.25421
56 1 4.68896 19.7693 -6.52301
57 1 5.10382 20.2206 -5.808
58 1 5.45787 21.0824 -5.59682
59 1 5.80535 21.932 -5.90163
60 1 6.57214 22.4669 -5.91336
61 1 7.32331 22.1356 -6.38617
62 1 7.26691 21.9584 -7.3093
63 1 7.76167 21.2522 -7.76411
64 1 7.94621 20.3367 -7.9965
ITEM: TIMESTEP
820000
ITEM: NUMBER OF ATOMS
64
ITEM: BOX BOUNDS mm mm mm
-3.2000000000000000e+01 3.2000000000000000e+01
-3.2000000000000000e+01 3.2000000000000000e+01