ITEM: TIMESTEP
810000
ITEM: NUMBER OF ATOMS
64
ITEM: BOX BOUNDS mm mm mm
-3.2000000000000000e+01 3.2000000000000000e+01
-3.2000000000000000e+01 3.2000000000000000e+01
-3.2000000000000000e+01 3.2000000000000000e+01
ITEM: ATOMS id type x y z
1 1 -1.56991 12.2928 0.808859
2 1 -0.61824 12.1402 0.864856
3 1 0.300209 12.237 1.15506
4 1 0.198138 11.6896 1.94834
5 1 -0.31604 11.4833 2.68952
6 1 -1.03766 11.1321 3.16441
7 1 -1.25127 10.3053 3.52461
8 1 -1.68565 9.5159 3.45359
9 1 -2.37377 9.48382 2.82635
10 1 -2.80568 10.3501 2.81069
11 1 -3.34391 11.1068 2.94169
12 1 -4.12101 10.7215 2.58664
13 1 -5.04611 10.7085 2.35661
14 1 -5.74172 10.7178 1.69723
15 1 -6.70548 10.7079 1.90832
16 1 -6.22617 11.4824 2.23104
17 1 -6.19801 11.5752 3.17772
18 1 -6.32219 11.1091 3.98083
19 1 -5.87814 11.5111 4.70327
20 1 -5.08445 11.4906 5.33877
21 1 -5.43908 11.7212 6.16647
22 1 -6.08145 12.1351 6.68588
23 1 -6.65145 11.5643 6.16725
24 1 -7.00765 10.8249 5.68581
25 1 -7.95961 10.6163 5.4615
26 1 -8.70643 10.0722 5.71368
27 1 -8.70399 9.75262 4.83508
28 1 -8.35367 9.86868 3.99099
29 1 -8.83402 10.7516 3.88876
30 1 -9.45811 11.4393 4.16948
31 1 -9.81469 11.8969 4.86105
32 1 -9.41577 11.9712 5.70521
33 1 -9.11958 11.7907 6.58923
34 1 -8.75743 11.5779 7.41166
35 1 -8.78127 11.0892 8.21462
36 1 -7.96496 10.788 7.90483
37 1 -7.50657 10.6401 7.10774
38 1 -7.01036 9.87882 6.85781
39 1 -7.31803 9.05359 7.22834
40 1 -8.06597 9.45727 6.84025
41 1 -8.93142 9.75743 6.86565
42 1 -9.19186 8.99793 6.30782
43 1 -8.81098 8.37378 5.73004
44 1 -8.34851 8.09961 4.95682
45 1 -7.82015 7.76005 4.23991
46 1 -7.58907 6.98757 3.74323
47 1 -7.34465 6.62885 2.9854
48 1 -6.93345 6.49647 2.18375
49 1 -6.90966 6.07607 1.37427
50 1 -7.06511 5.16004 1.16821
51 1 -8.00717 4.95778 1.01162
52 1 -8.88754 4.90027 0.65517
53 1 -9.07887 4.37688 1.45076
54 1 -9.0919 4.28231 2.3734
55 1 -9.14607 3.76656 3.14197
56 1 -8.26501 3.74902 2.89616
57 1 -7.90673 3.31865 2.19848
58 1 -7.13898 3.11088 1.71146
59 1 -6.61829 2.40367 1.58425
60 1 -7.05973 1.61358 1.85911
61 1 -7.77679 1.04183 1.74667
62 1 -8.59821 0.642743 2.00124
63 1 -8.92754 0.291881 2.79073
64 1 -8.35619 0.103409 3.49901
ITEM: TIMESTEP
820000
ITEM: NUMBER OF ATOMS
64
ITEM: BOX BOUNDS mm mm mm
-3.2000000000000000e+01 3.2000000000000000e+01
-3.2000000000000000e+01 3.2000000000000000e+01
-3.2000000000000000e+01 3.2000000000000000e+01
ITEM: ATOMS id type x y z
1 1 -6.00786 14.0236 8.55043
2 1 -5.92558 14.5711 7.76603
3 1 -6.21768 14.3828 6.89842
4 1 -5.61081 14.575 6.1591
5 1 -4.87709 14.1857 5.65051
6 1 -4.47965 14.9891 5.89973
7 1 -4.50432 15.5506 5.17878
8 1 -5.2728 15.8256 4.69237
9 1 -5.45687 15.4589 3.82859
10 1 -5.09566 15.5114 2.98685
11 1 -5.81836 15.3626 2.38893
12 1 -6.09484 14.6392 1.8614
13 1 -6.87816 14.1108 1.87786
14 1 -7.65429 13.592 1.73446
15 1 -7.23913 12.9836 1.13364
16 1 -6.4954 12.4218 0.882609
17 1 -5.70223 11.8472 0.910184
18 1 -5.23702 11.3116 1.4842
19 1 -4.68253 11.2627 2.25657
20 1 -4.40639 11.9964 2.77744
21 1 -4.57975 12.7874 3.2066
22 1 -5.01931 12.8628 4.08237
23 1 -5.55026 13.6223 4.24288
24 1 -5.74976 13.4339 5.17954
25 1 -6.07495 13.0433 5.96841
26 1 -6.52589 12.7458 5.1686
27 1 -6.92617 12.3678 4.39381
28 1 -7.86164 12.3056 4.29825
29 1 -8.32281 11.8146 4.98016
30 1 -8.58112 10.9717 5.35201
31 1 -9.33788 10.668 5.80095
32 1 -9.96447 9.98227 5.71224
33 1 -10.2729 9.12781 5.75681
34 1 -9.80829 8.31016 5.83616
35 1 -10.0276 7.42721 5.88484
36 1 -10.2479 6.94133 5.14216
37 1 -10.6303 6.64579 4.31123
38 1 -10.5466 5.79551 4.01232
39 1 -11.0838 5.05859 3.84679
40 1 -11.4731 4.63389 3.11487
41 1 -11.6844 3.86022 2.64488
42 1 -10.8585 3.49712 2.29894
43 1 -10.3629 2.69596 2.39184
44 1 -10.2901 1.86071 2.91597
45 1 -10.0951 0.992705 3.08981
46 1 -10.1192 0.190333 2.60115
47 1 -9.24092 -0.0914154 2.3352
48 1 -8.46076 0.164312 2.90976
49 1 -7.79449 0.484004 3.45094
50 1 -7.58377 0.17356 4.27308
51 1 -7.71614 0.262149 5.16361
52 1 -7.24984 0.729521 5.84058
53 1 -7.35042 1.01254 6.72341
54 1 -7.12431 0.930167 7.63889
55 1 -7.39328 1.29859 8.48014
56 1 -7.87893 1.75771 9.1748
57 1 -8.51077 2.43363 9.34559
58 1 -9.2029 3.03004 9.46609
59 1 -9.60443 3.63949 8.8606
60 1 -9.3596 3.97645 7.96584
61 1 -8.54749 3.85592 7.52118
62 1 -8.47344 4.66498 7.07722
63 1 -8.32155 5.44575 7.56672
64 1 -8.63586 5.93869 6.86319
ITEM: TIMESTEP
830000
ITEM: NUMBER OF ATOMS
64
ITEM: BOX BOUNDS mm mm mm
-3.2000000000000000e+01 3.2000000000000000e+01
-3.2000000000000000e+01 3.2000000000000000e+01
-3.2000000000000000e+01 3.2000000000000000e+01
ITEM: ATOMS id type x y z
1 1 4.4888 14.0018 6.12059
2 1 4.51297 14.6564 5.3906
3 1 4.04914 14.0453 4.77778
4 1 3.75121 13.1925 4.49595
5 1 3.86894 12.392 5.01375
6 1 3.91934 11.4794 4.92599
7 1 3.76814 10.6174 5.24802
8 1 2.94725 10.0325 5.26019
9 1 2.07238 9.9837 5.56489
10 1 1.28345 10.4578 5.77819
11 1 0.762246 9.72704 6.14436
12 1 -0.195666 9.79699 5.99751
13 1 -0.620181 8.92965 6.01211
14 1 -1.49606 8.97839 5.60497
15 1 -2.43457 8.93474 5.29362
16 1 -2.69967 9.67492 4.74757
17 1 -2.90448 10.0925 3.94759
18 1 -2.84702 9.65731 3.07203
19 1 -3.0216 8.80429 2.74958
20 1 -2.75115 7.95577 2.42008
21 1 -3.47736 7.46838 2.03748
22 1 -3.3844 6.76699 1.43672
23 1 -3.7233 5.92392 1.14582
24 1 -4.05951 5.11733 0.815905
25 1 -4.05864 4.19615 0.85402
26 1 -3.84902 3.63017 0.24087
27 1 -3.13429 3.05784 0.410151
28 1 -3.27495 2.11551 0.429715
29 1 -3.66102 1.29352 0.698374
30 1 -4.51504 0.904852 1.02054
31 1 -5.35743 0.820939 1.39511
32 1 -5.96889 1.46753 1.43721
33 1 -6.41823 1.90858 2.16066
34 1 -6.3173 2.67001 2.65278
35 1 -7.0831 3.04392 3.14034
36 1 -7.90325 2.56656 3.26964
37 1 -8.80402 2.47007 3.4802
38 1 -9.10343 3.04114 4.13129
39 1 -9.27781 2.99832 5.03543
40 1 -10.021 2.43619 5.1403
41 1 -10.9005 2.74848 4.8779
42 1 -11.4764 2.60793 4.20194
43 1 -12.3107 2.51135 4.63063
44 1 -12.2267 2.29785 5.55658
45 1 -12.574 2.1617 6.44388
46 1 -13.3057 1.6511 6.63774
47 1 -13.4883 1.17275 7.40796
48 1 -12.9333 0.754545 8.02089
49 1 -11.9907 0.550408 8.21772
50 1 -11.2457 0.0885537 8.60756
51 1 -10.9793 -0.515921 9.25415
52 1 -10.0469 -0.601949 9.50238
53 1 -9.83927 -0.580013 8.59885
54 1 -9.17987 -0.701265 7.95402
55 1 -9.26601 -0.802711 7.04818
56 1 -9.1823 -0.702306 6.0697
57 1 -9.58241 -1.30073 5.38583
58 1 -9.44719 -1.45008 4.4869
59 1 -8.85618 -1.40111 3.73086
60 1 -8.16531 -2.00263 4.03055
61 1 -7.71287 -1.35351 3.57718
62 1 -7.1554 -0.549625 3.66752
63 1 -6.32011 -0.377655 4.14156
64 1 -6.29881 0.0920411 4.97145
ITEM: TIMESTEP
840000
ITEM: NUMBER OF ATOMS
64
ITEM: BOX BOUNDS mm mm mm
-3.2000000000000000e+01 3.2000000000000000e+01
-3.2000000000000000e+01 3.2000000000000000e+01
-3.2000000000000000e+01 3.2000000000000000e+01
ITEM: ATOMS id type x y z
1 1 3.4301 6.129 10.7676
2 1 3.49841 5.86259 9.86581
3 1 3.69023 5.74547 8.90379
4 1 4.00341 5.89033 8.00654
5 1 4.12625 6.08878 7.131
6 1 3.32293 6.21555 6.64307
7 1 2.70256 6.73267 6.19943
8 1 1.82041 6.70066 5.78445
9 1 1.15986 6.13754 6.38487
10 1 0.928473 6.13522 7.25712
11 1 1.23934 6.67632 7.99037
12 1 0.791725 7.46108 7.88191
13 1 1.21166 8.19011 7.35392
14 1 1.36054 8.76348 6.58944
15 1 1.9294 8.80132 5.88861
16 1 1.48438 8.48446 5.13764
17 1 0.894348 9.07923 4.68604
18 1 0.993193 9.8529 4.20645
19 1 0.85749 10.4138 3.44982
20 1 0.782065 10.9151 2.61389
21 1 0.00916499 11.4205 2.45625
22 1 -0.659771 10.8107 2.03677
23 1 -1.01006 10.0465 1.60131
24 1 -1.71435 10.4861 2.04151
25 1 -2.64188 10.4472 1.76665
26 1 -3.34584 11.1409 1.61919
27 1 -3.27375 11.0941 0.698036
28 1 -3.74196 10.4702 0.131744
29 1 -4.7529 10.3403 0.334438
30 1 -5.38464 9.69011 0.0441069
31 1 -5.11339 8.76193 -0.139649
32 1 -4.82934 8.36109 -0.959766
33 1 -5.29161 7.62751 -0.628152
34 1 -6.03171 7.10463 -0.763932
35 1 -5.94663 6.37753 -0.136219
36 1 -5.16351 5.8599 0.0704236
37 1 -4.43893 5.38621 0.433567
38 1 -4.4 4.52473 0.00599908
39 1 -5.06655 3.84445 -0.0737513
40 1 -5.03955 3.22379 0.625646
41 1 -5.72525 2.77117 1.1673
42 1 -5.66148 3.25503 1.96279
43 1 -5.32004 3.37618 2.82593
44 1 -5.55444 3.05581 3.67385
45 1 -6.20335 3.05668 4.32621
46 1 -6.70995 2.39694 4.76832
47 1 -7.60924 2.07512 4.87233
48 1 -8.18814 1.40053 5.27222
49 1 -8.58384 0.586415 5.57356
50 1 -8.43918 -0.214984 6.09301
51 1 -8.64909 -0.337511 7.03578
52 1 -8.0142 0.0563977 7.66635
53 1 -8.10357 0.575277 6.86853
54 1 -8.55873 1.36018 6.6354
55 1 -9.07734 2.08191 7.03578
56 1 -9.72119 2.79117 6.92625
57 1 -9.36366 3.03967 6.05727
58 1 -9.20898 3.59337 5.32292
59 1 -8.58367 3.64641 4.62589
60 1 -9.08959 3.0984 4.01176
61 1 -9.21282 2.93506 3.09647
62 1 -10.1582 3.12537 2.88625
63 1 -10.0025 3.98017 2.4215
64 1 -9.67431 4.82474 2.28529
ITEM: TIMESTEP
850000
ITEM: NUMBER OF ATOMS
64
ITEM: BOX BOUNDS mm mm mm
-3.2000000000000000e+01 3.2000000000000000e+01
-3.2000000000000000e+01 3.2000000000000000e+01
-3.2000000000000000e+01 3.2000000000000000e+01
ITEM: ATOMS id type x y z
1 1 3.26755 8.39416 9.76009
2 1 2.35719 8.14043 9.61325
3 1 1.55735 8.2021 9.12337
4 1 0.873696 8.38571 8.50412
5 1 0.651667 8.34758 7.60251
6 1 0.204312 8.50074 6.82491
7 1 0.538478 8.06445 6.08547
8 1 1.02296 7.30555 5.77974
9 1 0.892195 6.36076 5.85633
10 1 0.112274 5.79385 5.86688
11 1 0.600931 5.32336 6.61562
12 1 1.29281 4.75284 6.27145
13 1 1.59135 3.95053 5.9608
14 1 0.913016 3.79512 6.57309
15 1 0.0312145 3.56078 6.72403
16 1 -0.943344 3.45159 6.65843
17 1 -0.973427 3.58826 7.6685
18 1 -1.15276 3.46535 8.6096
19 1 -1.37099 4.35996 8.39849
20 1 -1.45834 4.5521 7.48062
21 1 -1.82852 4.11874 6.65565
22 1 -2.49921 4.05112 5.99764
23 1 -2.60161 4.81982 5.47817
24 1 -2.72009 5.5888 4.95554
25 1 -3.21715 5.47796 4.17001
26 1 -3.87102 5.48707 3.49866
27 1 -4.20522 5.29386 2.66248
28 1 -4.39186 5.8576 1.92117
29 1 -3.92054 5.97754 1.00159
30 1 -4.09028 6.74419 0.482356
31 1 -4.83268 7.34061 0.747809
32 1 -5.39582 6.66276 0.491676
33 1 -6.26055 6.33062 0.566096
34 1 -6.91868 5.71222 0.306112
35 1 -7.49068 5.53367 -0.504317
36 1 -7.86333 4.97166 -1.13323
37 1 -7.39627 4.40788 -1.77789
38 1 -7.44665 4.34131 -2.75303
39 1 -7.92676 3.59786 -3.12133
40 1 -8.28197 2.99873 -3.73648
41 1 -8.70253 2.17952 -3.69154
42 1 -9.01535 2.03819 -2.75064
43 1 -9.6232 2.05491 -2.0176
44 1 -8.9567 1.55039 -1.41913
45 1 -8.4484 1.08065 -0.765424
46 1 -7.99984 0.631011 -0.0720136
47 1 -7.77485 -0.145922 0.407515
48 1 -7.16724 -0.45518 -0.225922
49 1 -7.16068 -1.04117 0.525073
50 1 -7.59354 -0.746177 1.33165
51 1 -8.14825 -1.21089 1.99301
52 1 -8.7595 -1.03546 2.6577
53 1 -9.49699 -0.649616 3.02247
54 1 -10.3823 -0.406532 3.34827
55 1 -11.2542 -0.704449 3.70369
56 1 -11.9683 -1.18748 4.10966
57 1 -12.1888 -1.97225 3.66888
58 1 -11.7541 -2.79246 3.61678
59 1 -11.8323 -3.23239 2.83394
60 1 -11.0648 -3.80362 3.02948
61 1 -10.5318 -4.63222 2.95077
62 1 -9.83975 -5.22456 3.15085
63 1 -9.38598 -6.05117 3.25013
64 1 -8.77368 -6.6246 2.89678
ITEM: TIMESTEP
860000
ITEM: NUMBER OF ATOMS
64
ITEM: BOX BOUNDS mm mm mm
-3.2000000000000000e+01 3.2000000000000000e+01
-3.2000000000000000e+01 3.2000000000000000e+01
-3.2000000000000000e+01 3.2000000000000000e+01
ITEM: ATOMS id type x y z
1 1 6.01292 6.74372 13.0006
2 1 5.1336 6.52948 12.7283
3 1 4.43632 6.0417 12.3086
4 1 4.29016 5.2747 11.8247
5 1 3.51893 4.67758 11.6716
6 1 2.68133 4.3424 11.4652
7 1 1.87381 4.18216 11.0274
8 1 1.35195 4.11698 10.274
9 1 0.731981 4.37953 9.71275
10 1 0.0768174 4.41695 9.04703
11 1 -0.562185 4.47739 8.41217
12 1 -0.737288 4.76237 7.53139
13 1 -1.45508 4.94284 6.89041
14 1 -1.49806 5.53798 6.19826
15 1 -1.0717 6.168 5.67544
16 1 -1.65098 6.882 5.61824
17 1 -2.43608 7.2935 5.3283
18 1 -3.04163 7.75121 4.83317
19 1 -3.66661 8.38352 4.54293
20 1 -3.96562 8.60747 3.67903
21 1 -3.93793 7.91302 3.04793
22 1 -3.9688 6.96298 2.7668
23 1 -3.88933 6.0465 2.5697
24 1 -3.08444 6.43462 2.32933
25 1 -3.05331 7.01376 1.56138
26 1 -3.68375 6.88391 0.834932
27 1 -3.99164 7.05209 -0.00867491
28 1 -4.59565 7.04642 -0.778788
29 1 -5.46726 7.23647 -0.471123
30 1 -5.46121 6.44915 0.00614883
31 1 -5.30793 5.59443 -0.352317
32 1 -4.80401 4.8865 -0.0880979
33 1 -4.36234 4.98002 0.734534
34 1 -4.18012 5.04889 1.67159
35 1 -4.35272 4.93344 2.61514
36 1 -4.77579 5.43111 3.27471
37 1 -5.46337 6.08259 3.11212
38 1 -6.04465 6.32091 3.80375
39 1 -6.91459 6.71093 3.89502
40 1 -6.47944 6.85447 4.70031
41 1 -6.12968 7.03201 5.5338
42 1 -6.93671 7.1976 5.99479
43 1 -7.65213 7.23982 6.63533
44 1 -8.29446 6.84376 6.05459
45 1 -9.17424 6.48622 6.0996
46 1 -9.34425 6.50989 7.04122
47 1 -8.6948 5.79178 7.10488
48 1 -8.75106 4.9885 7.60695
49 1 -9.40804 4.31698 7.89627
50 1 -9.6057 3.46833 8.17652
51 1 -10.2578 3.21829 8.83362
52 1 -11.0868 2.73875 8.93021
53 1 -11.0836 2.24744 8.13444
54 1 -11.698 2.02485 7.46745
55 1 -12.4342 2.69784 7.19162
56 1 -12.9451 2.36196 7.95355
57 1 -13.845 2.04798 7.71328
58 1 -14.6374 1.63988 7.39049
59 1 -14.8187 1.13832 8.14385
60 1 -14.5555 1.59196 8.87916
61 1 -14.0562 1.91992 9.68662
62 1 -13.5394 1.55163 10.3889
63 1 -12.7728 1.06918 10.6256
64 1 -12.0001 0.638668 10.8835
ITEM: TIMESTEP
870000
ITEM: NUMBER OF ATOMS
64
ITEM: BOX BOUNDS mm mm mm
-3.2000000000000000e+01 3.2000000000000000e+01
-3.2000000000000000e+01 3.2000000000000000e+01
-3.2000000000000000e+01 3.2000000000000000e+01
ITEM: ATOMS id type x y z
1 1 3.31493 4.52022 14.126
2 1 2.46911 4.53587 13.7335
3 1 1.71015 4.34588 13.2703
4 1 0.974096 3.83095 12.991
5 1 0.656324 3.11446 12.4889
6 1 0.331441 2.62717 11.7693
7 1 -0.161183 2.43573 10.9921
8 1 -1.02416 2.13077 11.0709
9 1 -1.04554 1.42718 10.3652
10 1 -1.21486 2.15567 9.79146
11 1 -1.143 2.78764 9.07456
12 1 -0.921971 3.35087 8.30078
13 1 -1.41586 4.00029 7.84884
14 1 -2.21274 3.99536 7.28206
15 1 -3.07411 3.80493 6.95735
16 1 -3.54652 3.01123 6.72338
17 1 -3.84382 2.18666 6.41365
18 1 -4.2625 2.7356 5.70816
19 1 -4.07394 3.1671 4.88877
20 1 -4.3012 3.13303 3.96327
21 1 -4.50078 3.05136 3.0201
22 1 -4.8634 2.77183 2.24185
23 1 -5.18468 3.57773 1.86913
24 1 -4.82301 4.3181 1.45352
25 1 -5.31198 5.05362 1.75459
26 1 -4.82665 5.40613 2.46788
27 1 -4.56525 5.35841 3.45451
28 1 -4.85505 5.42276 4.35892
29 1 -5.43692 5.51646 5.12238
30 1 -6.19334 5.77021 5.69012
31 1 -7.05689 5.67982 6.07558
32 1 -7.68024 5.32573 5.50501
33 1 -8.14734 5.78404 4.85647
34 1 -8.18568 5.90026 3.97355
35 1 -7.4132 5.35982 3.98919
36 1 -6.98346 4.57969 4.45153
37 1 -6.82104 3.72587 4.82992
38 1 -6.69041 2.94217 5.41697
39 1 -6.79979 3.25973 6.32241
40 1 -7.63569 3.67029 6.39862
41 1 -8.53638 3.64537 6.59596
42 1 -9.00491 3.65993 7.39184
43 1 -9.68341 3.45603 7.97596
44 1 -10.1449 4.26904 8.11993
45 1 -11.1304 4.40836 8.30207
46 1 -11.7765 3.72671 8.42851
47 1 -12.5574 4.02869 7.92548
48 1 -12.7873 4.90694 7.78281
49 1 -12.996 5.63953 7.13321
50 1 -13.6014 5.78583 7.9091
51 1 -13.806 5.02145 8.35749
52 1 -14.4162 4.3195 8.34443
53 1 -15.0606 3.5955 8.15298
54 1 -15.2494 2.9732 7.5035
55 1 -16.1178 2.7082 7.74085
56 1 -16.6377 2.80866 8.5293
57 1 -16.7767 2.95157 9.47611
58 1 -16.6249 2.33084 10.1472
59 1 -15.9551 1.76162 9.81072
60 1 -15.1704 1.14004 9.97642
61 1 -14.3863 0.755036 9.77381
62 1 -14.4632 -0.217874 9.83464
63 1 -13.5362 -0.328297 9.73386
64 1 -12.9125 -0.832394 10.1795
ITEM: TIMESTEP
880000
ITEM: NUMBER OF ATOMS
64
ITEM: BOX BOUNDS mm mm mm
-3.2000000000000000e+01 3.2000000000000000e+01
-3.2000000000000000e+01 3.2000000000000000e+01
-3.2000000000000000e+01 3.2000000000000000e+01
ITEM: ATOMS id type x y z
1 1 1.24106 3.71532 10.4914
2 1 1.20791 3.75768 9.54663
3 1 1.27918 3.86855 8.61476
4 1 1.40454 3.81001 7.66518
5 1 1.02783 3.28889 6.95346
6 1 1.0438 2.91595 6.12236
7 1 0.917587 2.62872 5.22561
8 1 0.593905 3.49964 5.02739
9 1 0.611829 4.23019 4.46254
10 1 0.701902 5.09261 4.79244
11 1 1.20955 5.90653 4.91452
12 1 1.01377 6.13737 3.99683
13 1 1.29361 5.88922 3.12813
14 1 1.70044 5.39947 2.42969
15 1 1.65699 4.90617 1.58943
16 1 0.777893 4.73982 1.21162
17 1 0.7088 3.84867 1.61782
18 1 0.848165 3.42562 2.44709
19 1 0.548745 2.7853 3.0745
20 1 0.633767 1.91502 2.7928
21 1 0.871078 1.17678 2.25784
22 1 0.0466073 1.58392 2.04317
23 1 -0.0843185 2.5018 2.18331
24 1 -0.525182 3.2549 1.85857
25 1 -0.724437 4.11973 2.014
26 1 -0.944292 5.00134 2.45495
27 1 -1.59289 5.48947 2.97843
28 1 -2.298 4.86817 2.97611
29 1 -2.7116 4.47443 3.64748
30 1 -3.50442 4.53023 4.15852
31 1 -2.93282 5.15811 4.56433
32 1 -3.40681 5.54648 5.26195
33 1 -4.33713 5.85145 5.13181
34 1 -5.27603 6.04971 5.17722
35 1 -6.05711 5.54993 5.27924
36 1 -6.81621 5.70761 5.81377
37 1 -6.62605 6.4504 6.34008
38 1 -6.83473 7.30789 6.71174
39 1 -7.48189 7.17785 7.44013
40 1 -8.40068 7.09366 7.78648
41 1 -8.80445 6.24356 7.80181
42 1 -9.25352 5.40867 7.59437
43 1 -10.2111 5.18668 7.61619
44 1 -10.2054 4.20077 7.72993
45 1 -11.0427 3.75832 7.91779
46 1 -11.6678 3.19986 7.40451
47 1 -12.2431 2.75974 6.79393
48 1 -13.1536 2.6085 7.03275
49 1 -13.7682 1.89494 7.24922
50 1 -13.5205 1.22084 6.57341
51 1 -13.7825 0.936651 5.73665
52 1 -14.3733 0.723944 5.03818
53 1 -14.7116 0.813281 4.15664
54 1 -15.5604 0.918873 4.48137
55 1 -15.8709 1.75819 4.42378
56 1 -16.7326 2.01912 4.32158
57 1 -17.6537 1.94453 4.45056
58 1 -18.0357 1.62358 5.23474
59 1 -18.5538 2.2816 5.69526
60 1 -18.4776 2.42573 6.60845
61 1 -18.4667 1.67584 7.20247
62 1 -18.4914 0.899894 7.76442
63 1 -17.9729 1.6487 8.09054
64 1 -18.4016 2.53436 8.00435
ITEM: TIMESTEP
890000
ITEM: NUMBER OF ATOMS
64
ITEM: BOX BOUNDS mm mm mm
-3.2000000000000000e+01 3.2000000000000000e+01
-3.2000000000000000e+01 3.2000000000000000e+01
-3.2000000000000000e+01 3.2000000000000000e+01
ITEM: ATOMS id type x y z
1 1 1.16134 4.39273 4.93424
2 1 1.06749 4.70474 5.85435
3 1 0.809768 5.23981 6.53617
4 1 1.06346 4.83077 7.30431
5 1 0.75841 4.35279 8.08178
6 1 1.56483 4.29607 8.55822
7 1 1.71304 3.38278 8.69192
8 1 1.14807 2.74742 8.20548
9 1 0.766176 2.01812 7.66844
10 1 -0.0997337 2.31255 7.30229
11 1 -0.868006 2.24149 6.76618
12 1 -1.6022 1.76422 6.40689
13 1 -1.91929 1.06723 5.88301
14 1 -1.73895 1.33626 5.06993
15 1 -2.33596 1.70909 4.43018
16 1 -3.09186 2.30856 4.39214
17 1 -3.48198 2.45629 3.56253
18 1 -3.58752 3.35559 3.51262
19 1 -4.03432 4.08626 3.87667
20 1 -4.62108 4.79824 3.65962
21 1 -4.53301 4.78047 2.73883
22 1 -4.60909 5.03808 1.79476
23 1 -3.94689 4.44604 1.50849
24 1 -3.43458 3.79234 1.1368
25 1 -4.14033 3.84562 0.522091
26 1 -4.59508 4.32558 -0.160529
27 1 -5.54194 4.17178 -0.121808
28 1 -5.3123 4.38237 -1.0054
29 1 -5.70306 3.83699 -1.65957
30 1 -6.31249 4.08579 -0.954986
31 1 -6.92137 4.56497 -0.482698
32 1 -7.59549 4.18235 0.0829749
33 1 -8.07161 3.45023 -0.255293
34 1 -8.70623 2.78152 -0.403191
35 1 -9.62595 2.74403 -0.219808
36 1 -10.4655 2.85997 0.211102
37 1 -11.3394 3.2462 0.129508
38 1 -12.0478 3.87154 0.00969371
39 1 -12.0036 4.75668 0.349005
40 1 -11.704 4.64282 1.2176
41 1 -11.0909 5.34484 1.33803
42 1 -11.4648 6.21161 1.38833
43 1 -11.1924 6.85753 0.781965
44 1 -12.0747 6.88282 0.561715
45 1 -12.9537 6.90004 0.401613
46 1 -13.4702 6.39991 1.00267
47 1 -14.3653 6.46351 0.983132
48 1 -15.178 6.20156 0.616212
49 1 -15.0375 5.35604 0.259456
50 1 -15.6907 4.70962 0.190688
51 1 -16.0138 4.01435 0.816261
52 1 -16.7785 4.22107 1.44662
53 1 -17.7244 4.62288 1.41165
54 1 -17.8355 4.61031 0.4995
55 1 -17.6968 4.91939 -0.349573
56 1 -17.8743 5.24445 -1.25667
57 1 -18.2796 5.99842 -1.47244
58 1 -18.7381 6.75044 -1.07065
59 1 -19.5836 7.07362 -0.763007
60 1 -19.1628 7.90692 -0.816753
61 1 -19.8783 7.98304 -0.210755
62 1 -20.4685 8.34502 0.371562
63 1 -20.1899 8.66831 1.23958
64 1 -20.0589 9.45911 0.700883
ITEM: TIMESTEP
900000
ITEM: NUMBER OF ATOMS
64
ITEM: BOX BOUNDS mm mm mm
-3.2000000000000000e+01 3.2000000000000000e+01
-3.2000000000000000e+01 3.2000000000000000e+01
-3.2000000000000000e+01 3.2000000000000000e+01
ITEM: ATOMS id type x y z
1 1 -2.73549 9.16849 6.90737
2 1 -1.86251 9.36312 6.82957
3 1 -1.29365 9.77043 7.56673
4 1 -1.46431 8.86443 7.61883
5 1 -1.78374 7.91124 7.57088
6 1 -2.21874 7.08721 7.37556
7 1 -1.55077 6.74059 7.97367
8 1 -1.73787 5.84112 7.74908
9 1 -1.52343 5.10208 7.22867
10 1 -1.72729 4.18214 7.31168
11 1 -1.44692 4.33174 6.43501
12 1 -1.32655 4.49246 5.53925
13 1 -1.7184 5.32369 5.36722
14 1 -2.38854 5.94672 5.37636
15 1 -2.87685 6.66966 5.09371
16 1 -1.95158 6.88822 4.92516
17 1 -1.31578 7.04108 5.64592
18 1 -0.740761 6.32797 5.8648
19 1 -0.19256 5.87384 6.51624
20 1 0.46633 6.6077 6.51049
21 1 1.07898 7.05413 5.95365
22 1 0.345031 7.39176 5.4287
23 1 -0.170914 7.70469 4.72219
24 1 -0.393612 7.23909 3.91022
25 1 -0.705758 7.31258 2.99341
26 1 -0.796607 8.2512 2.95184
27 1 -1.38287 8.22236 2.22801
28 1 -1.74041 7.65758 1.55263
29 1 -2.06908 8.1716 0.819807
30 1 -2.90849 8.34803 0.436206
31 1 -2.99334 7.98543 -0.424183
32 1 -3.73376 7.99441 -0.990998
33 1 -4.23394 7.41279 -0.446907
34 1 -3.85821 6.68413 -0.00831071
35 1 -4.02822 5.76134 -0.0276027
36 1 -4.88402 5.66011 0.310974
37 1 -5.65316 6.15037 0.0576138
38 1 -5.97583 5.46934 0.748021
39 1 -6.74844 4.83531 0.624535
40 1 -7.59167 4.60159 0.870704
41 1 -8.33021 5.12763 1.21171
42 1 -8.84902 5.19604 1.97946
43 1 -9.62952 5.17885 2.5733
44 1 -10.104 5.32419 3.36389
45 1 -10.3267 6.18865 3.69707
46 1 -11.0256 6.17228 4.35625
47 1 -11.1838 6.75687 5.14087
48 1 -10.7242 7.23961 5.81903
49 1 -10.7685 7.91045 6.49694
50 1 -11.5491 8.18036 7.04396
51 1 -12.5067 7.96937 7.01296
52 1 -13.2409 8.40153 7.38449
53 1 -14.1084 8.68894 7.51716
54 1 -14.5913 9.3586 7.89666
55 1 -15.2835 9.91965 8.11867
56 1 -15.8653 10.6713 7.87974
57 1 -16.6927 10.911 7.43054
58 1 -17.6148 11.0083 7.37188
59 1 -17.7284 11.6514 8.01132
60 1 -17.8715 11.2635 8.93586
61 1 -18.6421 11.3648 9.40853
62 1 -19.4142 11.4189 8.93947
63 1 -19.808 12.1165 9.46972
64 1 -20.1581 12.689 10.1056
ITEM: TIMESTEP
910000
ITEM: NUMBER OF ATOMS
64
ITEM: BOX BOUNDS mm mm mm
-3.2000000000000000e+01 3.2000000000000000e+01
-3.2000000000000000e+01 3.2000000000000000e+01
-3.2000000000000000e+01 3.2000000000000000e+01
ITEM: ATOMS id type x y z
1 1 9.21662 2.96702 10.0344
2 1 9.71132 3.01121 9.23909
3 1 9.31353 2.86013 8.39698
4 1 8.86416 2.84013 7.59149
5 1 7.9406 2.92568 7.46773
6 1 7.37764 3.19556 6.82094
7 1 6.43444 3.2761 6.70632
8 1 5.5039 3.30495 6.65388
9 1 5.19696 3.92031 6.0732
10 1 4.95349 3.90912 5.14542
11 1 4.99673 3.82708 4.21221
12 1 4.19745 3.79915 3.70695
13 1 3.39198 3.90773 3.23037
14 1 2.62547 4.4562 3.43211
15 1 1.92651 5.1433 3.36941
16 1 1.18258 5.0032 2.84159
17 1 1.29605 5.65863 2.17748
18 1 0.79793 5.83779 1.40027
19 1 -0.0719864 6.21708 1.16184
20 1 -0.641657 6.68646 1.77692
21 1 -1.34788 6.31311 2.17892
22 1 -2.2708 5.8168 2.24727
23 1 -3.16906 6.12287 1.99596
24 1 -4.05431 6.00951 1.72322
25 1 -4.48661 5.792 0.91717
26 1 -4.40576 5.48876 0.0048664
27 1 -5.23927 5.17951 -0.253893
28 1 -5.80135 5.70345 0.273685
29 1 -5.52821 6.07432 1.10576
30 1 -5.14864 6.6562 1.77148
31 1 -5.52056 7.02132 2.60334
32 1 -5.66087 7.44571 3.46176
33 1 -5.90605 8.08582 2.71645
34 1 -6.47053 8.53296 2.0656
35 1 -7.24779 9.13157 1.9889
36 1 -7.90503 9.67317 1.63708
37 1 -8.27318 10.5029 2.08554
38 1 -8.24109 10.7428 2.98053
39 1 -8.90404 11.2893 3.42862
40 1 -9.48501 10.5681 3.42098
41 1 -10.0651 9.77448 3.32358
42 1 -10.2451 8.84923 3.14224
43 1 -10.6796 8.4029 3.89249
44 1 -11.1341 8.53122 4.7216
45 1 -11.2744 7.72399 5.18383
46 1 -11.7173 6.86823 5.08571
47 1 -11.6767 6.36651 5.86322
48 1 -11.897 5.46799 6.07956
49 1 -12.5669 5.17093 5.46856
50 1 -12.9737 5.80117 4.85457
51 1 -13.7884 5.30291 4.99861
52 1 -14.5957 4.8891 4.93294
53 1 -15.5291 4.88026 5.04881
54 1 -16.0536 4.26919 4.55415
55 1 -16.3569 3.36118 4.54227
56 1 -16.6536 2.58436 4.06584
57 1 -16.7924 1.96856 3.34104
58 1 -17.162 1.50727 2.62835
59 1 -17.7396 1.51386 1.92114
60 1 -18.5531 1.69565 2.41595
61 1 -19.2704 1.11398 2.61105
62 1 -19.2505 0.354423 3.18232
63 1 -18.7565 0.496689 3.91992
64 1 -17.9687 0.634847 4.39136
ITEM: TIMESTEP
920000
ITEM: NUMBER OF ATOMS
64
ITEM: BOX BOUNDS mm mm mm
-3.2000000000000000e+01 3.2000000000000000e+01
-3.2000000000000000e+01 3.2000000000000000e+01
-3.2000000000000000e+01 3.2000000000000000e+01
ITEM: ATOMS id type x y z
1 1 0.978345 0.398573 4.68746
2 1 0.861136 1.20752 4.23157
3 1 0.968295 1.81701 4.92099
4 1 1.05366 1.95879 5.83503
5 1 1.03164 2.84144 6.06847
6 1 0.821093 3.51173 5.4632
7 1 1.59684 3.87113 5.09137
8 1 2.057 4.67404 4.95541
9 1 2.34277 5.60529 4.87542
10 1 2.04896 6.22861 4.22864
11 1 1.75579 6.55716 5.10329
12 1 1.21292 5.79142 4.99108
13 1 0.921892 5.4955 4.06
14 1 0.460021 5.67401 3.23201
15 1 -0.00272162 6.32688 2.76478
16 1 -0.36435 6.67898 1.99709
17 1 -1.0344 6.33118 1.42614
18 1 -1.70017 6.58974 0.860158
19 1 -1.62678 7.53895 1.02458
20 1 -1.50161 8.44918 0.876876
21 1 -1.24042 9.14206 0.283228
22 1 -2.13644 9.16204 0.0252621
23 1 -3.03555 9.38858 -0.139863
24 1 -3.71991 9.95202 -0.29332
25 1 -3.96775 10.6616 -0.852998
26 1 -4.41314 10.9529 -0.0450432
27 1 -4.92824 11.1741 0.694432
28 1 -5.49011 11.5249 1.42595
29 1 -6.16616 11.5167 2.10375
30 1 -5.88233 11.0606 2.8592
31 1 -6.03841 10.1394 2.72972
32 1 -6.28834 9.42078 3.25382
33 1 -6.42864 9.07274 4.18743
34 1 -7.27527 8.68809 3.85342
35 1 -7.85254 8.11512 4.29686
36 1 -7.46315 7.52113 4.91315
37 1 -8.20642 6.96555 4.77185
38 1 -8.46716 6.07717 4.8985
39 1 -8.57443 5.11784 4.94803
40 1 -8.65772 4.33195 5.52065
41 1 -9.47342 4.65512 5.22949
42 1 -10.1694 5.23128 5.54927
43 1 -10.7198 5.89606 5.19201
44 1 -10.7395 6.84887 5.144
45 1 -11.4759 7.05824 5.70102
46 1 -12.083 6.86683 6.34528
47 1 -12.0354 6.89937 7.30796
48 1 -11.4526 7.41744 7.82441
49 1 -10.9837 8.14557 8.06679
50 1 -11.868 8.51218 7.9542
51 1 -12.4818 9.23061 7.74892
52 1 -13.2629 9.6973 7.85558
53 1 -13.9536 9.48716 8.51909
54 1 -14.2823 8.61063 8.49472
55 1 -14.5471 7.98348 9.10136
56 1 -15.0402 7.79016 9.89909
57 1 -15.8193 8.06363 9.47767
58 1 -16.7167 7.7889 9.22314
59 1 -17.3202 7.26238 8.78784
60 1 -18.0709 6.67727 8.8074
61 1 -18.6044 5.89028 8.78694
62 1 -18.5088 5.01019 8.34936
63 1 -17.9375 5.45452 7.75518
64 1 -17.366 4.78878 7.27839
ITEM: TIMESTEP
930000
ITEM: NUMBER OF ATOMS
64
ITEM: BOX BOUNDS mm mm mm
-3.2000000000000000e+01 3.2000000000000000e+01
-3.2000000000000000e+01 3.2000000000000000e+01
-3.2000000000000000e+01 3.2000000000000000e+01
ITEM: ATOMS id type x y z
1 1 3.38702 4.04086 7.44315
2 1 2.73788 3.8893 8.15552
3 1 2.19415 3.09017 7.97788
4 1 2.17876 3.59582 7.15172
5 1 1.86358 4.35993 6.51594
6 1 1.44647 3.78403 5.92002
7 1 1.30027 3.30074 5.12864
8 1 0.522734 2.94875 4.7539
9 1 -0.344294 3.28255 4.58726
10 1 -0.844078 3.40403 3.77258
11 1 -1.27661 3.38984 2.95825
12 1 -1.83735 3.64541 2.24805
13 1 -2.17482 4.5019 1.84135
14 1 -2.79991 5.20643 1.74348
15 1 -3.08039 4.63827 2.42707
16 1 -3.43308 4.905 3.30303
17 1 -3.87849 5.40531 3.99055
18 1 -3.76735 4.75855 4.60305
19 1 -3.12484 4.18261 4.9426
20 1 -2.48603 3.56151 5.19953
21 1 -1.81668 3.0459 5.49991
22 1 -1.84643 3.42297 6.33124
23 1 -2.12289 3.74339 7.13858
24 1 -1.36065 4.06227 7.60476
25 1 -0.576961 4.06745 8.1215
26 1 -0.530516 4.94074 7.78585
27 1 0.106855 5.51679 8.17807
28 1 -0.256876 6.35366 7.85852
29 1 -0.605842 7.23284 7.731
30 1 -1.37585 7.47938 7.20672
31 1 -1.35387 8.2521 6.66948
32 1 -1.15348 8.74842 5.81631
33 1 -1.80207 9.27759 5.45785
34 1 -2.21797 9.82525 6.06336
35 1 -1.72216 10.3554 6.65144
36 1 -1.43935 10.7555 7.42111
37 1 -2.31601 10.4839 7.53169
38 1 -3.14278 10.2011 7.85822
39 1 -4.06827 10.0975 7.85178
40 1 -4.87681 9.79615 7.56852
41 1 -5.80771 9.93214 7.47373
42 1 -6.29507 10.604 6.98335
43 1 -6.85939 10.224 6.27214
44 1 -7.52004 9.87282 5.68968
45 1 -8.43298 9.72545 5.92241
46 1 -9.41191 9.81432 5.9637
47 1 -10.3088 10.1017 6.1729
48 1 -11.2243 10.0745 6.05592
49 1 -11.7726 10.1261 5.337
50 1 -12.4037 10.4439 4.71183
51 1 -13.3526 10.1187 4.58902
52 1 -13.2466 9.65001 5.38682
53 1 -13.5475 9.58386 6.30733
54 1 -13.4829 9.4895 7.27477
55 1 -13.7695 8.57342 7.39549
56 1 -13.4142 7.80502 7.83578
57 1 -13.129 7.31859 8.67866
58 1 -12.7881 6.47182 8.88727
59 1 -13.3485 5.88665 8.38558
60 1 -14.3342 5.822 8.27511
61 1 -14.9971 5.20849 8.07853
62 1 -15.8064 4.71143 8.02928
63 1 -16.033 4.0508 7.4117
64 1 -16.8581 3.57366 7.26381
ITEM: TIMESTEP
940000
ITEM: NUMBER OF ATOMS
64
ITEM: BOX BOUNDS mm mm mm
-3.2000000000000000e+01 3.2000000000000000e+01
-3.2000000000000000e+01 3.2000000000000000e+01
-3.2000000000000000e+01 3.2000000000000000e+01
ITEM: ATOMS id type x y z
1 1 -1.47314 4.52159 6.24737
2 1 -1.17822 4.59431 7.13101
3 1 -1.91188 5.1386 7.2409
4 1 -2.36803 5.46298 6.51091
5 1 -2.76592 5.13313 5.75132
6 1 -2.97728 5.46395 4.87842
7 1 -2.50921 5.4139 4.06725
8 1 -2.45087 4.75657 3.40798
9 1 -1.60894 4.39926 3.20904
10 1 -0.659498 4.35263 3.31755
11 1 -0.705971 5.22533 3.71398
12 1 -0.048909 5.8207 3.39274
13 1 -0.0173519 5.98315 2.45902
14 1 0.749745 6.45807 2.19661
15 1 1.47468 6.14218 2.76836
16 1 1.54084 5.91386 3.64642
17 1 1.91809 6.34796 4.34062
18 1 2.24239 7.02859 4.8372
19 1 1.59775 7.60951 4.54819
20 1 1.07345 8.40271 4.4312
21 1 0.450909 8.98136 3.85518
22 1 -0.11084 9.30194 3.18731
23 1 -0.145424 9.50846 2.27925
24 1 -0.987519 9.21528 2.58749
25 1 -1.45317 8.32112 2.57223
26 1 -2.2043 7.76838 2.66353
27 1 -1.81345 7.07844 3.22453
28 1 -1.79086 7.40978 4.13947
29 1 -2.36789 7.23961 4.87621
30 1 -2.06522 8.18437 4.98967
31 1 -1.37361 8.40093 4.33922
32 1 -0.928568 8.75855 3.60846
33 1 -1.82528 8.82621 3.54077
34 1 -2.04811 9.637 3.91349
35 1 -2.19993 10.5782 4.08715
36 1 -1.65603 10.6807 4.89722
37 1 -1.51056 11.5756 5.15422
38 1 -1.62339 12.5503 5.01767
39 1 -2.05787 12.8958 5.741
40 1 -2.82078 12.7058 6.3715
41 1 -3.75605 12.7671 6.37904
42 1 -4.38519 12.564 5.68869
43 1 -5.27617 12.5533 6.05369
44 1 -6.14533 12.3227 5.72839
45 1 -7.00708 12.0176 5.65555
46 1 -7.86454 12.3978 5.78231
47 1 -8.65952 12.8893 5.89959
48 1 -9.60434 13.0538 5.68994
49 1 -9.88063 12.1063 5.88775
50 1 -10.3355 11.3412 6.01204
51 1 -11.0025 10.6493 6.22229
52 1 -11.502 9.85934 6.30026
53 1 -11.5936 9.27344 5.61485
54 1 -12.2636 9.18679 5.02512
55 1 -12.4421 9.07184 4.14829
56 1 -13.2647 8.57283 4.03519
57 1 -14.1967 8.69322 3.72482
58 1 -15.0519 8.74952 4.14505
59 1 -15.7631 8.17286 4.08874
60 1 -16.617 7.75567 4.17131
61 1 -17.5024 7.85466 3.92434