ITEM: TIMESTEP
30000
ITEM: NUMBER OF ATOMS
64
ITEM: BOX BOUNDS mm mm mm
-3.2000000000000000e+01 3.2000000000000000e+01
-3.2000000000000000e+01 3.2000000000000000e+01
-3.2000000000000000e+01 3.2000000000000000e+01
ITEM: ATOMS id type x y z
1 1 -6.64773 0.921539 2.83982
2 1 -6.65005 0.149514 3.39172
3 1 -7.1807 -0.674211 3.3262
4 1 -8.0624 -0.852979 3.40027
5 1 -8.89775 -0.879698 3.06421
6 1 -9.07335 -0.850334 2.12741
7 1 -9.43813 -0.982949 1.24064
8 1 -9.75819 -1.25099 0.376081
9 1 -9.61815 -0.342797 0.0167547
10 1 -9.17804 0.509352 -0.242142
11 1 -8.27077 0.492574 -0.230621
12 1 -8.2796 0.805295 0.642442
13 1 -7.90781 -0.0727784 0.823507
14 1 -7.41379 -0.789997 0.480955
15 1 -6.8659 -0.898223 1.2689
16 1 -5.97796 -0.759525 1.08886
17 1 -5.57056 -0.260719 0.430818
18 1 -5.81572 0.551459 0.0577237
19 1 -4.98603 0.290305 -0.387851
20 1 -4.46795 -0.385337 0.0447525
21 1 -3.53401 -0.415167 0.267568
22 1 -2.97343 -1.06926 -0.139717
23 1 -2.52755 -0.980837 -1.0075
24 1 -3.26512 -0.35712 -1.07806
25 1 -3.87406 -0.284675 -1.75243
26 1 -3.15397 -0.895198 -2.04166
27 1 -2.48201 -0.83253 -2.7189
28 1 -2.878 -0.496897 -3.50335
29 1 -3.13098 -0.0809752 -4.28835
30 1 -2.37331 0.38729 -3.9659
31 1 -1.45897 0.231917 -4.04926
32 1 -0.569197 0.236505 -3.70622
33 1 0.305995 0.120844 -4.09393
34 1 1.15728 -0.312063 -3.83968
35 1 1.72851 -0.935242 -4.22973
36 1 1.63552 -1.91239 -4.43153
37 1 2.56085 -1.758 -4.40931
38 1 3.13886 -2.22717 -3.88427
39 1 3.46091 -3.01954 -3.61993
40 1 2.93407 -3.0958 -2.90192
41 1 3.52904 -3.55161 -2.25054
42 1 3.5785 -4.50794 -2.23323
43 1 4.36052 -4.13714 -1.88582
44 1 5.02978 -3.58347 -2.37987
45 1 4.86867 -4.44819 -2.72072
46 1 5.56228 -5.0217 -2.64102
47 1 6.33572 -5.32631 -2.20398
48 1 7.24308 -5.57818 -2.24811
49 1 7.773 -5.98848 -2.93103
50 1 8.24743 -5.54186 -2.31293
51 1 8.35683 -4.57624 -2.29102
52 1 8.43263 -4.73222 -3.25646
53 1 8.98355 -3.95637 -3.26644
54 1 9.60288 -3.33066 -2.84605
55 1 10.1513 -2.78236 -2.32029
56 1 10.1301 -1.83863 -2.3323
57 1 11.0311 -1.70536 -2.02391
58 1 11.3199 -1.30267 -2.79378
59 1 10.7414 -0.641009 -2.36855
60 1 10.2662 -1.14316 -3.10578
61 1 10.1057 -0.433789 -3.76291
62 1 9.88857 -0.0475636 -4.59497
63 1 9.044 0.128054 -4.82384
64 1 8.45713 0.796865 -5.049
ITEM: TIMESTEP
40000
ITEM: NUMBER OF ATOMS
64
ITEM: BOX BOUNDS mm mm mm
-3.2000000000000000e+01 3.2000000000000000e+01
-3.2000000000000000e+01 3.2000000000000000e+01
-3.2000000000000000e+01 3.2000000000000000e+01
ITEM: ATOMS id type x y z
1 1 -11.8143 -3.35035 1.52972
2 1 -12.3203 -3.6653 0.816197
3 1 -12.767 -2.88602 0.583761
4 1 -11.872 -2.61414 0.726067
5 1 -11.0023 -2.27421 0.678854
6 1 -11.2602 -1.91533 -0.178058
7 1 -10.4671 -2.09394 -0.624285
8 1 -10.0795 -1.25455 -0.523405
9 1 -9.41049 -1.75342 -0.987031
10 1 -8.66101 -2.12059 -0.552159
11 1 -8.28945 -1.7363 -1.37309
12 1 -8.05219 -1.30187 -0.554678
13 1 -7.6859 -0.792963 0.159359
14 1 -7.64748 -0.697437 1.10191
15 1 -7.13165 0.115744 1.32378
16 1 -6.94503 0.351767 0.446041
17 1 -6.19369 -0.00477874 0.0761745
18 1 -6.0754 -0.949604 0.0108731
19 1 -5.23555 -0.990157 -0.383398
20 1 -4.97449 -1.02962 -1.35029
21 1 -5.35093 -1.51505 -2.1505
22 1 -4.40897 -1.55708 -2.31339
23 1 -3.71741 -1.07511 -1.91116
24 1 -3.42185 -0.218343 -2.12374
25 1 -2.58762 -0.276247 -1.69972
26 1 -1.87703 -0.168631 -1.05513
27 1 -1.32919 0.201238 -1.72366
28 1 -1.0849 0.948571 -2.29409
29 1 -1.25416 0.620179 -3.13539
30 1 -0.589857 1.10804 -3.61927
31 1 -0.9595 0.777729 -4.48817
32 1 -1.01522 -0.038823 -4.92825
33 1 -0.959119 -0.565452 -5.70782
34 1 -1.90655 -0.823709 -5.60992
35 1 -1.5232 -0.98944 -4.79325
36 1 -1.90884 -1.84693 -4.68028
37 1 -1.29644 -2.45048 -5.07834
38 1 -0.34866 -2.34529 -5.23649
39 1 0.476099 -2.02147 -5.38694
40 1 1.11263 -2.66186 -5.71383
41 1 1.5225 -3.19001 -5.03527
42 1 1.9448 -3.12922 -4.21667
43 1 2.4316 -2.38885 -4.45868
44 1 2.69643 -1.87179 -5.17349
45 1 2.97201 -1.37557 -5.91953
46 1 3.57094 -0.78053 -6.4419
47 1 4.48618 -0.594638 -6.36424
48 1 5.31167 -0.491167 -5.97919
49 1 5.95801 0.119811 -6.08637
50 1 6.7708 0.655416 -6.07674
51 1 7.30658 1.05214 -5.39371
52 1 7.20968 1.78176 -5.95826
53 1 8.00794 2.29363 -6.0193
54 1 8.74985 2.86484 -5.82395
55 1 9.06073 3.25934 -6.62615
56 1 8.56163 2.96542 -7.39406
57 1 8.92735 2.18938 -7.01159
58 1 9.4898 1.60565 -7.51846
59 1 10.3594 1.33524 -7.26131
60 1 11.0353 1.79323 -7.80718
61 1 11.3255 0.963299 -8.18235
62 1 11.9215 0.976285 -8.93373
63 1 12.693 1.28466 -8.4271
64 1 13.2565 1.32147 -9.19639
ITEM: TIMESTEP
50000
ITEM: NUMBER OF ATOMS
64
ITEM: BOX BOUNDS mm mm mm
-3.2000000000000000e+01 3.2000000000000000e+01
-3.2000000000000000e+01 3.2000000000000000e+01
-3.2000000000000000e+01 3.2000000000000000e+01
ITEM: ATOMS id type x y z
1 1 1.03932 0.58014 -0.982584
2 1 0.925003 1.20159 -0.297391
3 1 0.285721 0.599691 -0.0312108
4 1 -0.54304 0.528073 0.380718
5 1 -1.17005 1.18057 0.302647
6 1 -2.04266 1.44956 -0.011337
7 1 -1.72414 1.83285 -0.812805
8 1 -1.81803 1.24634 -1.53134
9 1 -2.28878 0.508558 -1.85757
10 1 -2.28645 -0.394177 -1.5316
11 1 -1.49585 0.0114173 -1.22961
12 1 -0.706522 0.441431 -0.959233
13 1 -0.627197 0.0544441 -1.84226
14 1 -1.35444 -0.231242 -2.33927
15 1 -1.47654 -0.801004 -3.12382
16 1 -1.14415 -1.65776 -3.3855
17 1 -0.608902 -1.79673 -2.65612
18 1 0.281254 -1.86751 -2.61415
19 1 0.682662 -1.33471 -3.22618
20 1 1.09672 -0.510767 -3.47124
21 1 0.333793 -0.214139 -2.95285
22 1 0.199377 0.547947 -3.5496
23 1 -0.68165 0.932931 -3.51871
24 1 -0.870623 0.998521 -4.45382
25 1 -1.59812 1.53671 -4.04734
26 1 -1.38444 2.39107 -4.42418
27 1 -0.448944 2.48599 -4.57522
28 1 0.496364 2.69239 -4.38271
29 1 1.08644 1.94328 -4.07546
30 1 1.76326 2.55609 -3.87615
31 1 2.6066 2.89508 -4.2662
32 1 3.33475 3.33328 -4.63343
33 1 4.07433 3.74313 -4.94998
34 1 4.43957 2.8571 -5.01937
35 1 4.88327 2.12337 -4.59954
36 1 5.38788 1.4165 -4.28051
37 1 5.96518 0.749944 -3.8843
38 1 6.38725 1.35865 -4.42972
39 1 7.15851 1.11778 -4.91088
40 1 8.04229 0.831875 -4.91859
41 1 8.23103 1.55761 -5.53956
42 1 7.95812 2.10094 -6.2745
43 1 7.24157 1.59587 -6.66634
44 1 7.46442 0.642645 -6.67581
45 1 8.01551 0.0383533 -7.1602
46 1 8.5457 0.414227 -7.80359
47 1 9.08394 1.07093 -8.27815
48 1 9.62208 1.55983 -8.87913
49 1 10.0246 2.29124 -9.33284
50 1 10.8284 1.80973 -9.42702
51 1 10.7511 1.75527 -10.3381
52 1 11.5258 1.36155 -10.1604
53 1 11.8982 1.68402 -10.9254
54 1 11.5243 2.3873 -11.3628
55 1 11.8432 2.7048 -10.5479
56 1 12.5893 3.1885 -10.1279
57 1 13.0493 3.57465 -10.9209
58 1 13.5818 4.35388 -10.9072
59 1 13.763 3.91859 -11.7461
60 1 13.5688 3.61229 -12.575
61 1 13.0716 2.96045 -12.1225
62 1 12.8669 2.81753 -13.0036
63 1 12.6305 3.74099 -13.268
64 1 11.8793 3.80808 -12.7953
ITEM: TIMESTEP
60000
ITEM: NUMBER OF ATOMS
64
ITEM: BOX BOUNDS mm mm mm
-3.2000000000000000e+01 3.2000000000000000e+01
-3.2000000000000000e+01 3.2000000000000000e+01
-3.2000000000000000e+01 3.2000000000000000e+01
ITEM: ATOMS id type x y z
1 1 1.90541 5.23099 -2.46209
2 1 2.04482 5.83579 -1.72087
3 1 1.34773 6.28727 -2.29173
4 1 0.662 6.38015 -1.6799
5 1 -0.316085 6.14111 -1.69994
6 1 -0.307224 6.16675 -0.804613
7 1 -0.440775 6.14381 0.180865
8 1 -1.24839 5.72935 0.354851
9 1 -1.41648 5.03772 0.944112
10 1 -2.09656 4.70418 1.44108
11 1 -2.14443 3.74187 1.52927
12 1 -1.77333 3.06888 2.05441
13 1 -1.77217 2.17776 2.43181
14 1 -1.68245 2.00168 1.56023
15 1 -1.34482 1.37188 0.969937
16 1 -0.642549 0.68673 1.04869
17 1 -0.642863 1.08903 0.148463
18 1 -0.0617861 1.21809 -0.582513
19 1 0.895234 1.14497 -0.643535
20 1 1.72847 1.02237 -1.02243
21 1 2.0647 1.46254 -1.79663
22 1 2.54655 1.92003 -2.46537
23 1 2.96642 1.07814 -2.3402
24 1 3.70174 1.05152 -2.93351
25 1 3.85387 0.184079 -3.30869
26 1 4.75222 0.108957 -3.14267
27 1 5.61962 0.495616 -3.30473
28 1 5.25882 0.645355 -4.12041
29 1 5.8951 1.10885 -4.63455
30 1 5.95094 0.206589 -4.91613
31 1 5.49389 -0.198813 -5.65569
32 1 4.73953 -0.397207 -6.29028
33 1 5.3495 -1.12088 -6.49969
34 1 5.726 -1.95049 -6.70193
35 1 6.03136 -2.24134 -7.5533
36 1 6.82227 -2.34407 -8.08801
37 1 6.42836 -2.08681 -8.9349
38 1 6.57423 -1.17467 -9.20341
39 1 6.08231 -0.464585 -9.53599
40 1 5.77824 0.131471 -10.2479
41 1 5.20977 0.718121 -9.83755
42 1 5.25996 1.37218 -9.20318
43 1 5.32835 1.37597 -8.24921
44 1 4.61334 1.8141 -7.847
45 1 4.9005 2.64207 -7.53637
46 1 4.79781 3.07254 -8.3692
47 1 4.21744 3.57476 -8.88265
48 1 4.8005 4.28896 -8.77746
49 1 4.35225 4.48363 -9.54754
50 1 3.56384 4.14775 -9.94363
51 1 4.21635 4.00933 -10.5582
52 1 4.18805 3.0589 -10.419
53 1 4.97709 3.10747 -10.9387
54 1 5.25434 2.37633 -11.4331
55 1 5.29662 2.66176 -12.3259
56 1 5.99451 2.53274 -12.947
57 1 6.89224 2.59713 -12.5672
58 1 7.12749 3.47364 -12.4865
59 1 7.96673 3.56113 -11.9919
60 1 8.22446 4.3686 -11.5169
61 1 8.0862 5.28899 -11.628
62 1 8.30963 5.33872 -10.682
63 1 7.54639 4.71919 -10.6876
64 1 7.55854 3.81865 -10.7522
ITEM: TIMESTEP
70000
ITEM: NUMBER OF ATOMS
64
ITEM: BOX BOUNDS mm mm mm
-3.2000000000000000e+01 3.2000000000000000e+01
-3.2000000000000000e+01 3.2000000000000000e+01
-3.2000000000000000e+01 3.2000000000000000e+01
ITEM: ATOMS id type x y z
1 1 0.189069 3.47027 2.59592
2 1 -0.427472 3.24814 3.27613
3 1 0.353852 3.15447 3.80982
4 1 1.17468 3.21503 4.33075
5 1 1.48914 3.50606 3.49289
6 1 1.53776 3.00734 2.71243
7 1 1.85883 2.67843 1.91572
8 1 2.57875 3.03803 1.41316
9 1 1.89223 2.91068 0.803263
10 1 1.71654 3.64491 1.27395
11 1 1.75148 4.55864 1.17004
12 1 1.37654 4.29487 0.360948
13 1 0.515955 4.10639 0.603202
14 1 -0.250428 3.66203 0.280435
15 1 -0.975813 3.6648 -0.315578
16 1 -1.35889 2.7497 -0.345696
17 1 -1.75622 2.74834 -1.23896
18 1 -1.64025 1.87884 -1.58523
19 1 -2.23811 1.90804 -2.2782
20 1 -2.32472 1.31471 -2.96496
21 1 -1.51404 0.953701 -3.33348
22 1 -1.43373 0.22573 -3.94681
23 1 -1.43954 -0.177459 -4.79964
24 1 -2.11497 -0.137476 -5.4327
25 1 -1.54804 0.344032 -5.99881
26 1 -2.07795 0.25896 -6.8127
27 1 -2.0505 0.723334 -7.73406
28 1 -1.2986 0.898858 -7.23028
29 1 -0.713335 1.56169 -7.42368
30 1 -0.915465 2.4312 -7.84442
31 1 -1.02755 2.11525 -8.67665
32 1 -1.31281 1.99331 -9.4839
33 1 -1.2584 2.95043 -9.44557
34 1 -0.378466 2.59979 -9.48887
35 1 -0.0276528 3.14668 -8.81126
36 1 0.477959 3.91465 -8.746
37 1 0.85557 4.70686 -9.14809
38 1 1.60992 4.29519 -9.53623
39 1 1.87579 5.16378 -9.35567
40 1 2.8532 5.15162 -9.42048
41 1 2.98556 4.956 -10.3676
42 1 2.89211 5.46818 -11.1174
43 1 2.00557 5.52439 -11.4111
44 1 1.59261 6.39675 -11.2981
45 1 1.90997 7.2671 -11.233
46 1 2.29067 7.75913 -10.5258
47 1 3.04004 7.47181 -10.0097
48 1 3.41172 8.32343 -10.0942
49 1 4.29276 8.43614 -9.65733
50 1 4.2719 9.18216 -10.2101
51 1 4.64074 8.54761 -10.7706
52 1 5.21673 7.80502 -11.0338
53 1 4.7466 8.16536 -11.8347
54 1 5.61952 8.19128 -12.2833
55 1 5.06731 7.65143 -12.7754
56 1 5.04556 6.72901 -12.6212
57 1 5.87206 6.27427 -12.3127
58 1 6.6348 5.83245 -11.9611
59 1 7.14628 5.19533 -12.3501
60 1 7.81779 5.65813 -11.8312
61 1 7.76565 5.83052 -10.8514
62 1 7.41595 6.49385 -10.246
63 1 8.24225 5.96918 -9.98046
64 1 7.80762 5.29723 -9.50384
ITEM: TIMESTEP
80000
ITEM: NUMBER OF ATOMS
64
ITEM: BOX BOUNDS mm mm mm
-3.2000000000000000e+01 3.2000000000000000e+01
-3.2000000000000000e+01 3.2000000000000000e+01
-3.2000000000000000e+01 3.2000000000000000e+01
ITEM: ATOMS id type x y z
1 1 3.92531 -5.37315 -0.305378
2 1 4.82284 -5.24465 -0.711277
3 1 5.28993 -4.46885 -1.0231
4 1 5.02608 -4.02907 -1.74528
5 1 4.34774 -4.66791 -1.86951
6 1 4.14444 -3.98217 -2.52228
7 1 3.33005 -3.58647 -2.58367
8 1 2.42487 -3.79441 -2.67762
9 1 2.19704 -3.21474 -3.31569
10 1 1.87242 -2.74049 -4.03096
11 1 1.79376 -2.14372 -3.34142
12 1 0.924299 -1.69758 -3.4487
13 1 1.33564 -1.05188 -2.9544
14 1 1.80152 -0.505984 -2.4103
15 1 2.36905 0.0738384 -1.89134
16 1 2.12452 0.639524 -1.14627
17 1 2.01914 0.580961 -0.232228
18 1 1.4231 1.25355 -0.186185
19 1 1.80148 2.01166 -0.559922
20 1 1.67418 1.61148 -1.47456
21 1 1.075 2.23399 -1.69496
22 1 0.497408 1.95303 -2.37164
23 1 -0.393256 2.01884 -2.73127
24 1 -0.758724 2.87314 -2.92581
25 1 0.0649165 3.2479 -2.77032
26 1 0.616739 3.90282 -3.19072
27 1 1.45178 4.20614 -3.66105
28 1 1.72218 4.99181 -3.25741
29 1 2.1509 5.776 -2.98136
30 1 2.16981 6.71019 -2.87699
31 1 2.57559 6.84911 -2.08021
32 1 1.88193 7.53116 -2.04746
33 1 1.67062 7.6853 -2.93197
34 1 1.173 8.50493 -2.71898
35 1 1.32937 8.54783 -3.62234
36 1 1.1504 8.65037 -4.56704
37 1 1.55524 8.52654 -5.41323
38 1 2.14101 7.83147 -5.72359
39 1 2.4903 7.37411 -6.43615
40 1 1.94269 7.95713 -6.96666
41 1 1.74823 8.481 -7.6887
42 1 2.54012 8.69891 -8.15617
43 1 3.32693 9.10086 -7.90669
44 1 3.84635 9.30134 -8.63448
45 1 3.88514 9.96623 -9.29123
46 1 3.1006 9.99263 -9.85259
47 1 3.07644 9.90966 -10.7881
48 1 3.40689 10.1746 -11.6324
49 1 4.31464 10.4398 -11.8307
50 1 3.95223 11.101 -12.4073
51 1 4.34218 11.4678 -13.187
52 1 4.99893 11.8238 -12.6583
53 1 5.83268 12.15 -12.9536
54 1 6.26431 12.8024 -13.4822
55 1 5.83307 13.5354 -13.7947
56 1 5.1527 14.1742 -13.933
57 1 5.91272 14.6654 -13.5797
58 1 5.90228 14.2633 -12.701
59 1 6.61552 13.9743 -12.1628
60 1 6.94199 14.346 -11.3915
61 1 6.42565 15.0011 -11.8273
62 1 7.06359 15.371 -12.3704
63 1 7.48369 15.2755 -13.3126
64 1 7.6066 14.4359 -13.7313
ITEM: TIMESTEP
90000
ITEM: NUMBER OF ATOMS
64
ITEM: BOX BOUNDS mm mm mm
-3.2000000000000000e+01 3.2000000000000000e+01
-3.2000000000000000e+01 3.2000000000000000e+01
-3.2000000000000000e+01 3.2000000000000000e+01
ITEM: ATOMS id type x y z
1 1 3.86804 -7.76048 -3.04953
2 1 3.04452 -7.34427 -3.42596
3 1 2.64585 -8.11473 -3.76465
4 1 1.78269 -8.33542 -3.43028
5 1 1.60708 -7.54245 -3.85271
6 1 2.09267 -6.77681 -4.09006
7 1 2.30148 -6.40557 -3.21066
8 1 2.24217 -5.44578 -3.2291
9 1 2.2692 -4.54995 -3.55598
10 1 1.62826 -3.89481 -3.40462
11 1 1.72343 -3.45567 -4.21145
12 1 1.88399 -2.92363 -3.37825
13 1 1.55395 -2.35921 -2.73586
14 1 1.46801 -1.39553 -2.71626
15 1 1.19597 -0.567165 -2.44913
16 1 0.700264 -0.0370417 -3.10176
17 1 1.29567 -0.120972 -3.81762
18 1 2.1792 0.189496 -3.62447
19 1 2.65301 1.03292 -3.46168
20 1 2.778 1.96975 -3.4556
21 1 2.93855 2.80559 -3.93587
22 1 3.24669 3.40805 -3.30006
23 1 3.36589 4.36063 -3.50263
24 1 2.60175 4.10326 -4.00931
25 1 2.11129 4.88973 -3.81375
26 1 1.38542 4.43557 -3.34335
27 1 1.10559 5.12834 -2.79651
28 1 0.670867 5.92336 -2.5293
29 1 -0.292293 6.032 -2.48175
30 1 -0.142108 6.90922 -2.07923
31 1 0.63846 7.32134 -1.80932
32 1 0.438247 8.1412 -2.19188
33 1 0.57711 9.07453 -2.25043
34 1 1.34824 9.52123 -2.58603
35 1 1.99577 10.0637 -2.19905
36 1 2.04051 11.0199 -2.10582
37 1 1.83011 11.0836 -3.08672
38 1 1.48147 11.1878 -3.93421
39 1 0.668519 11.2981 -4.43253
40 1 0.700478 10.8784 -5.27054
41 1 1.51735 10.4913 -5.51794
42 1 2.16407 10.9924 -6.17726
43 1 2.59831 11.7247 -6.59924
44 1 2.3185 12.4398 -7.21929
45 1 3.13728 12.4075 -7.72851
46 1 3.21436 13.1398 -8.32419
47 1 3.39329 13.6594 -9.08704
48 1 3.43445 14.6132 -8.82658
49 1 2.86701 14.891 -8.0954
50 1 2.55994 15.2046 -8.96328
51 1 3.16142 15.9392 -8.85343
52 1 3.42779 16.5673 -9.51842
53 1 3.83667 17.2447 -9.08474
54 1 3.93253 17.6586 -9.91094
55 1 3.41698 18.0715 -10.5942
56 1 3.63288 18.7983 -11.2584
57 1 3.99991 18.2312 -11.881
58 1 3.74246 18.4374 -12.7682
59 1 4.6901 18.3286 -12.8694
60 1 5.43929 18.8735 -12.8458
61 1 6.26817 18.8739 -13.3122
62 1 6.3662 18.3417 -12.5652
63 1 7.07275 18.1278 -13.0771
64 1 7.50557 18.863 -13.4804
ITEM: TIMESTEP
100000
ITEM: NUMBER OF ATOMS
64
ITEM: BOX BOUNDS mm mm mm
-3.2000000000000000e+01 3.2000000000000000e+01
-3.2000000000000000e+01 3.2000000000000000e+01
-3.2000000000000000e+01 3.2000000000000000e+01
ITEM: ATOMS id type x y z
1 1 -1.20915 1.20356 -5.30222
2 1 -1.33619 1.49325 -4.45986
3 1 -0.431223 1.06813 -4.35963
4 1 0.276827 1.65614 -4.45687
5 1 1.12212 2.00084 -4.35108
6 1 1.54898 1.81833 -5.22315
7 1 2.08838 2.31397 -4.62845
8 1 2.94096 1.98798 -4.83726
9 1 2.44139 1.17473 -4.74135
10 1 2.79129 0.276586 -4.64565
11 1 1.84902 0.00448063 -4.55004
12 1 2.1301 -0.141279 -3.68633
13 1 1.95903 0.0394478 -2.75143
14 1 1.03983 0.0136838 -2.70154
15 1 1.3074 -0.184923 -1.83234
16 1 1.27473 0.206601 -0.964193
17 1 2.07932 0.661931 -0.967198
18 1 2.56923 1.40401 -0.759346
19 1 2.51406 2.3049 -0.707345
20 1 1.6223 2.14677 -0.952945
21 1 0.901499 2.78547 -0.994013
22 1 1.1023 3.74424 -1.19718
23 1 0.873516 4.58569 -1.61423
24 1 0.336452 4.74984 -2.37354
25 1 -0.171442 5.46544 -2.01495
26 1 -0.29312 6.1943 -2.71669
27 1 -0.643655 6.5067 -3.52744
28 1 0.0322048 6.99564 -3.83213
29 1 -0.656671 7.39908 -4.39875
30 1 -1.08098 8.0583 -4.98532
31 1 -0.385982 7.92301 -5.60262
32 1 0.178784 7.1919 -5.59091
33 1 0.718298 7.81694 -5.06687
34 1 1.34428 7.93079 -4.33243
35 1 2.17388 7.74162 -4.67949
36 1 2.23956 7.13102 -3.93432
37 1 3.01874 7.67174 -4.02582
38 1 3.84731 7.97249 -4.26216
39 1 3.56153 8.8379 -4.24667
40 1 2.85724 9.30759 -4.6429
41 1 2.21365 9.10201 -5.2637
42 1 1.39268 9.47748 -5.54809
43 1 0.593962 9.57879 -5.04144
44 1 0.012153 9.25499 -5.70577
45 1 0.308319 10.073 -6.018
46 1 0.623499 10.7824 -6.48118
47 1 1.26402 11.2258 -7.01339
48 1 1.19146 12.1465 -6.78744
49 1 0.827479 12.1508 -7.62476
50 1 0.264695 12.6903 -8.07878
51 1 0.43309 11.8665 -8.62656
52 1 0.0293921 11.1517 -8.11969
53 1 -0.71674 10.8548 -8.62635
54 1 -0.617423 10.7288 -9.58912
55 1 -0.810329 9.8538 -9.91218
56 1 -0.701091 9.28588 -10.6716
57 1 -0.512144 9.10755 -11.5883
58 1 0.194681 9.20452 -12.2388
59 1 0.947639 8.75638 -12.5019
60 1 1.67132 9.37258 -12.4329
61 1 2.42062 9.16611 -11.9361
62 1 1.81954 9.52737 -11.3534
63 1 2.17215 9.03719 -10.6071
64 1 1.82114 8.49129 -9.92216
ITEM: TIMESTEP
110000
ITEM: NUMBER OF ATOMS
64
ITEM: BOX BOUNDS mm mm mm
-3.2000000000000000e+01 3.2000000000000000e+01
-3.2000000000000000e+01 3.2000000000000000e+01
-3.2000000000000000e+01 3.2000000000000000e+01
ITEM: ATOMS id type x y z
1 1 1.53873 9.60916 -7.3357
2 1 1.93557 8.93304 -6.89826
3 1 2.6677 9.35428 -7.29712
4 1 3.18699 10.0081 -7.79325
5 1 3.58275 10.1083 -6.95233
6 1 3.91135 9.23644 -6.74988
7 1 4.36946 8.40723 -6.72745
8 1 3.82211 7.96321 -7.39864
9 1 3.40797 7.21666 -6.87816
10 1 2.94897 6.36706 -6.69013
11 1 3.33577 5.80421 -6.07421
12 1 3.44235 5.11856 -5.40111
13 1 2.62096 5.17856 -4.88262
14 1 3.22237 4.74988 -4.29465
15 1 4.07652 4.90632 -4.10606
16 1 3.93569 3.98268 -4.01159
17 1 4.54867 3.9361 -4.66353
18 1 5.28249 3.44077 -4.2942
19 1 5.20307 4.27795 -3.83257
20 1 5.65407 4.48186 -3.06237
21 1 5.94439 4.42441 -2.10342
22 1 4.93267 4.39104 -2.18545
23 1 4.09567 4.89721 -2.45175
24 1 4.31367 4.9908 -1.52719
25 1 3.88628 5.74539 -1.87171
26 1 2.99391 5.69855 -1.57441
27 1 2.46195 5.52528 -2.3456
28 1 3.03783 5.71412 -3.16984
29 1 3.68243 6.3177 -3.46809
30 1 3.6807 7.25733 -3.37687
31 1 4.0432 8.12777 -3.50979
32 1 3.12006 8.28581 -3.52154
33 1 2.34359 7.74485 -3.33192
34 1 1.42438 7.52792 -3.25533
35 1 0.971942 8.11959 -3.89627
36 1 0.584852 8.45845 -4.67781
37 1 1.28926 9.02139 -4.54214
38 1 0.666785 9.77386 -4.53753
39 1 1.17999 10.2435 -5.16628
40 1 0.916705 10.0449 -6.0044
41 1 1.27022 10.8583 -6.39229
42 1 0.643963 10.776 -7.11038
43 1 0.401631 11.3779 -7.74965
44 1 1.03656 12.034 -7.42683
45 1 1.97023 12.2965 -7.62284
46 1 1.82924 13.1501 -8.03218
47 1 1.9403 12.5774 -8.74809
48 1 1.8446 11.9629 -9.47647
49 1 1.03253 11.4855 -9.35543
50 1 0.385865 12.0601 -9.7084
51 1 -0.172728 12.7714 -9.92639
52 1 -0.250118 13.6215 -10.3487
53 1 -0.0479556 14.4097 -9.84543
54 1 -0.934976 14.7899 -9.90938
55 1 -1.81948 15.1684 -10.0266
56 1 -2.62502 14.7641 -10.2869
57 1 -2.68501 14.9485 -11.1668
58 1 -2.22759 14.9686 -12.0156
59 1 -1.43728 15.2205 -12.5047
60 1 -1.38795 15.9201 -13.0718
61 1 -1.73803 15.4653 -13.8052
62 1 -2.59602 15.5097 -14.1717
63 1 -3.20496 14.8043 -13.9608
64 1 -2.59746 14.2223 -13.5791
ITEM: TIMESTEP
120000
ITEM: NUMBER OF ATOMS
64
ITEM: BOX BOUNDS mm mm mm
-3.2000000000000000e+01 3.2000000000000000e+01
-3.2000000000000000e+01 3.2000000000000000e+01
-3.2000000000000000e+01 3.2000000000000000e+01
ITEM: ATOMS id type x y z
1 1 5.1066 3.66085 -11.1349
2 1 4.72536 3.35761 -10.2908
3 1 4.13619 3.75098 -9.68224
4 1 3.25975 3.99921 -9.35975
5 1 3.12374 3.4356 -8.64911
6 1 2.57179 2.70013 -8.66617
7 1 1.87774 2.18285 -8.23698
8 1 2.43528 1.82322 -7.53149
9 1 2.92663 1.46547 -6.69423
10 1 2.56799 1.73451 -5.87972
11 1 3.12513 1.65447 -5.14074
12 1 4.03326 1.81288 -4.97016
13 1 4.61523 2.3269 -5.5988
14 1 5.10341 1.53583 -5.44146
15 1 5.6823 2.27325 -5.52868
16 1 5.64583 2.98559 -4.94962
17 1 5.92387 3.59197 -5.63796
18 1 5.43868 4.38241 -5.88875
19 1 5.36056 5.27133 -6.08301
20 1 5.92888 5.97177 -6.24126
21 1 5.37127 6.75429 -5.97887
22 1 5.10485 6.87929 -5.09499
23 1 5.35589 7.77717 -5.10329
24 1 5.75483 8.14373 -4.29311
25 1 5.13355 8.84463 -4.30974
26 1 4.17098 8.88297 -4.26293
27 1 3.23938 8.8118 -4.2547
28 1 2.39198 8.86091 -4.61796
29 1 1.82868 9.50199 -4.99428
30 1 2.69348 9.8129 -5.30316
31 1 2.50512 9.10912 -5.90113
32 1 1.5534 8.88611 -5.9218
33 1 1.84614 9.47645 -6.6655
34 1 1.21684 9.30549 -7.38833
35 1 1.45801 9.369 -8.30235
36 1 2.10245 9.88983 -8.72902
37 1 1.60851 10.6374 -9.00147
38 1 1.06368 10.4444 -8.27356
39 1 0.24748 9.92357 -8.46266
40 1 -0.591735 10.1553 -8.81658
41 1 -0.881364 9.40999 -9.27546
42 1 -0.662484 8.88423 -8.56279
43 1 -1.00865 9.24315 -7.7557
44 1 -1.63074 9.37645 -8.50964
45 1 -1.57458 10.2592 -8.31645
46 1 -2.00998 10.0206 -7.5309
47 1 -1.5871 10.8187 -7.32049
48 1 -0.761061 10.3634 -7.21082
49 1 -0.395301 10.5387 -6.32838
50 1 -0.147262 11.1856 -5.6891
51 1 -0.52251 11.1474 -4.8625
52 1 0.132904 11.5425 -4.31007
53 1 0.904857 11.4532 -4.74636
54 1 0.765512 11.5908 -5.66539
55 1 0.76842 11.1418 -6.50382
56 1 0.191826 11.7294 -7.06246
57 1 0.0473767 12.6499 -7.0426
58 1 -0.249967 13.5527 -7.33621
59 1 -0.764043 13.6609 -6.61122
60 1 -1.61854 13.4207 -6.89945
61 1 -1.93505 13.4832 -6.02837
62 1 -1.55801 13.882 -5.31785
63 1 -0.748531 13.928 -4.83266
64 1 -0.772917 14.5704 -5.48132
ITEM: TIMESTEP
130000
ITEM: NUMBER OF ATOMS
64
ITEM: BOX BOUNDS mm mm mm
-3.2000000000000000e+01 3.2000000000000000e+01
-3.2000000000000000e+01 3.2000000000000000e+01
-3.2000000000000000e+01 3.2000000000000000e+01
ITEM: ATOMS id type x y z
1 1 11.4501 1.77586 -9.50712
2 1 11.1373 1.54877 -8.61535
3 1 10.5674 1.33226 -7.89464
4 1 10.0514 1.69656 -8.59
5 1 9.26384 1.49163 -8.07742
6 1 8.86519 2.09306 -7.45066
7 1 8.96737 3.01931 -7.25343
8 1 8.94135 3.70413 -7.96248
9 1 9.53789 4.37602 -7.75847
10 1 9.07466 4.84539 -7.1205
11 1 9.11057 5.73871 -6.77574
12 1 8.40566 6.35438 -6.55149
13 1 7.83384 6.80064 -7.16534
14 1 6.96977 7.15175 -6.93607
15 1 6.29218 6.56556 -7.29225
16 1 6.92991 6.32045 -7.95845
17 1 7.44754 6.19181 -8.72184
18 1 7.0306 5.65238 -9.2791
19 1 6.09914 5.44234 -9.37231
20 1 5.23818 5.80597 -9.37583
21 1 4.48974 5.9255 -8.85787
22 1 3.60535 5.87125 -9.20735
23 1 3.38976 5.37623 -8.40011
24 1 3.37317 6.11686 -7.82108
25 1 4.01783 6.34161 -7.16855
26 1 3.98829 6.89263 -7.99845
27 1 3.77297 7.54927 -8.69051
28 1 3.93857 7.37624 -9.60216
29 1 3.15287 7.39482 -10.0435
30 1 3.33203 8.23197 -9.61169
31 1 2.89871 8.95501 -10.1308
32 1 2.5662 9.83833 -9.97709
33 1 1.9515 9.30665 -10.412
34 1 1.80303 8.49584 -9.95468
35 1 1.82246 8.44277 -9.02447
36 1 2.46497 8.8088 -8.4305
37 1 1.96215 8.4349 -7.68252
38 1 1.07736 8.80679 -7.93211
39 1 0.604387 9.56207 -8.17672
40 1 1.13378 10.2408 -8.56014
41 1 0.233509 10.3502 -8.73273
42 1 -0.434169 10.5543 -9.34336
43 1 -1.22803 10.9853 -9.00123
44 1 -1.24406 11.4892 -8.16937
45 1 -1.05044 10.7765 -7.63378
46 1 -1.45101 10.626 -6.81285
47 1 -1.08798 11.4473 -6.59146
48 1 -0.8313 12.3451 -6.81831
49 1 -0.8662 12.9089 -7.63875
50 1 -1.4073 13.4448 -7.01637
51 1 -1.51512 14.1201 -7.65092
52 1 -1.96566 14.6952 -7.05034
53 1 -2.29026 15.5535 -7.19605
54 1 -1.68676 15.9966 -7.74765
55 1 -1.86616 16.4664 -6.95048
56 1 -2.37208 17.2125 -6.77071
57 1 -3.05826 16.7505 -6.36314
58 1 -3.57877 16.7584 -5.61562
59 1 -4.28458 16.4076 -5.09477
60 1 -4.14209 15.4614 -4.98331
61 1 -4.6556 14.6511 -5.07843
62 1 -4.6853 13.8108 -4.63634
63 1 -5.00447 14.2798 -3.91481
64 1 -5.53159 13.6508 -3.50222
ITEM: TIMESTEP
140000
ITEM: NUMBER OF ATOMS
64
ITEM: BOX BOUNDS mm mm mm
-3.2000000000000000e+01 3.2000000000000000e+01
-3.2000000000000000e+01 3.2000000000000000e+01
-3.2000000000000000e+01 3.2000000000000000e+01
ITEM: ATOMS id type x y z
1 1 12.4145 2.9282 -4.56533
2 1 12.5911 2.00115 -4.66346
3 1 12.9468 1.21242 -4.94977
4 1 12.0398 0.989372 -4.83165
5 1 11.9708 1.33987 -5.71835
6 1 11.7111 0.428016 -5.8059
7 1 12.1137 -0.334348 -6.19736
8 1 12.2761 -0.593083 -7.14264
9 1 11.4322 -0.974707 -6.90408
10 1 10.6156 -1.32048 -7.26645
11 1 10.1332 -0.707111 -6.68016
12 1 9.31346 -0.418495 -6.84655
13 1 8.45007 0.0180566 -6.65141
14 1 8.81749 0.886913 -6.6203
15 1 8.71754 1.61122 -7.17968
16 1 8.74061 1.81877 -8.08184
17 1 9.41859 1.84875 -8.73799
18 1 8.92173 2.41366 -9.36655
19 1 8.62713 2.13003 -10.1977
20 1 8.16881 2.61771 -10.8628
21 1 7.4143 2.06606 -11.0787
22 1 6.94212 2.38118 -11.8535
23 1 6.2053 2.95692 -11.9963
24 1 5.35997 3.04207 -11.4622
25 1 4.92127 3.86535 -11.5538
26 1 5.30767 4.51408 -12.0949
27 1 5.42067 4.97379 -12.8722
28 1 5.2212 5.56653 -12.2169
29 1 4.97288 6.05552 -11.4348
30 1 4.83743 5.46664 -10.7168
31 1 4.45042 5.12982 -9.95214
32 1 3.81319 4.94982 -9.25253
33 1 4.08871 4.93239 -8.36508
34 1 4.86527 4.82749 -7.82712
35 1 5.00673 5.57354 -8.33609
36 1 5.34788 6.25537 -7.80946
37 1 5.11227 5.7854 -7.03366
38 1 5.38085 5.84713 -6.14474
39 1 4.87525 6.68085 -6.14785
40 1 4.0979 7.23923 -6.28805
41 1 4.35149 7.80046 -7.00552
42 1 5.00154 8.23801 -6.45058
43 1 4.32154 8.84745 -6.11128
44 1 3.68525 8.28013 -5.75027
45 1 3.14146 8.64435 -5.01151
46 1 2.50545 8.58824 -5.70377
47 1 2.98349 8.82681 -6.57389
48 1 2.56911 9.17652 -7.35578
49 1 2.50258 8.23201 -7.2508
50 1 2.6619 7.4139 -6.80842
51 1 2.65517 6.58948 -6.32782
52 1 2.54163 7.3199 -5.62583
53 1 1.67781 6.83942 -5.41295
54 1 0.893078 7.27723 -5.33414
55 1 0.195259 7.6632 -4.83689
56 1 -0.190015 8.52979 -4.97197
57 1 -0.590579 9.26898 -4.62386
58 1 -0.531531 9.44465 -5.5449
59 1 -0.0699885 10.0229 -6.18961
60 1 -0.950886 10.4385 -6.38989
61 1 -1.46153 10.5087 -5.57377
62 1 -1.53195 10.5671 -4.61922
63 1 -0.871434 10.3596 -4.0115
64 1 0.00662228 10.0911 -4.27795
ITEM: TIMESTEP
150000
ITEM: NUMBER OF ATOMS
64
ITEM: BOX BOUNDS mm mm mm
-3.2000000000000000e+01 3.2000000000000000e+01
-3.2000000000000000e+01 3.2000000000000000e+01
-3.2000000000000000e+01 3.2000000000000000e+01
ITEM: ATOMS id type x y z
1 1 14.176 2.63508 -4.12259
2 1 14.6326 1.83868 -4.3235
3 1 13.7924 1.68861 -4.78565
4 1 13.6898 1.42071 -5.72202
5 1 13.5773 1.28406 -6.64363
6 1 13.513 2.22379 -6.65653
7 1 13.1854 2.41918 -5.73367
8 1 13.1976 3.05937 -5.07073
9 1 12.8206 3.897 -4.91279
10 1 12.2136 4.27303 -5.59
11 1 11.4583 4.52536 -5.16668
12 1 10.6745 3.95734 -5.21988
13 1 10.2437 3.07933 -5.08494
14 1 10.4528 2.1745 -5.15165
15 1 9.5196 1.97788 -5.39018
16 1 8.58124 1.85738 -5.53854
17 1 8.42221 2.58963 -6.04243
18 1 7.52476 2.79034 -6.22309
19 1 7.66986 3.28049 -5.45078
20 1 7.73859 3.98998 -4.82999
21 1 8.48979 4.17367 -4.35346
22 1 7.99487 4.34584 -3.50248
23 1 8.91123 4.17474 -3.24364
24 1 9.17603 5.08158 -3.01228
25 1 8.44213 5.39654 -2.4644
26 1 8.09148 5.57061 -3.29916
27 1 7.62332 6.25506 -3.75403
28 1 6.80139 6.14364 -4.04264
29 1 7.09908 6.89772 -4.65456
30 1 6.96278 7.40599 -5.44667
31 1 6.47323 7.03111 -6.13303
32 1 6.16785 7.49739 -6.91436
33 1 5.9201 8.0786 -6.20484
34 1 6.20006 8.60066 -5.43539
35 1 5.37405 8.88971 -5.0893
36 1 4.58894 9.20409 -4.61608
37 1 4.21668 9.95692 -4.10027
38 1 3.51744 9.26875 -4.10546
39 1 3.14778 8.61781 -3.51786
40 1 2.39105 8.63006 -2.89407
41 1 2.16688 8.86861 -1.94543
42 1 2.3265 8.035 -1.63679
43 1 2.9925 7.8668 -2.28553
44 1 2.84067 7.08643 -1.829
45 1 2.39209 6.38328 -2.33394
46 1 2.87062 5.68547 -2.61285
47 1 2.03386 5.38195 -2.77404
48 1 2.37601 5.5027 -3.66153
49 1 1.9703 6.32176 -3.93139
50 1 1.25156 5.90562 -3.5297
51 1 0.861823 6.27521 -2.72562
52 1 0.751022 6.36066 -1.79817
53 1 -0.146693 6.42625 -1.89469
54 1 -0.509641 6.11047 -2.68563
55 1 -0.894545 6.69578 -3.3055
56 1 -1.34738 7.55447 -3.30174
57 1 -0.71433 8.23483 -3.65569
58 1 -1.07242 9.08995 -3.80652
59 1 -0.51912 9.5824 -4.40953
60 1 0.117907 8.90596 -4.3435
61 1 1.04174 8.88088 -4.11886
62 1 1.45411 9.70258 -3.89164
63 1 2.09615 9.03366 -3.91594
64 1 2.04284 8.25423 -4.50983
ITEM: TIMESTEP
160000
ITEM: NUMBER OF ATOMS
64
ITEM: BOX BOUNDS mm mm mm
-3.2000000000000000e+01 3.2000000000000000e+01
-3.2000000000000000e+01 3.2000000000000000e+01
-3.2000000000000000e+01 3.2000000000000000e+01
ITEM: ATOMS id type x y z
1 1 10.6725 6.22683 -4.03914
2 1 11.2573 6.36182 -4.77322
3 1 11.6901 6.13166 -5.56378
4 1 12.4649 5.89634 -5.11057
5 1 13.1247 6.26037 -4.57238
6 1 13.952 6.50588 -5.0996
7 1 14.8154 6.2222 -4.96045
8 1 15.262 5.94433 -4.14859
9 1 15.5965 5.06842 -4.35559
10 1 15.7993 4.68953 -5.18304
11 1 15.2115 4.42764 -5.8519
12 1 14.6233 3.77892 -6.15727
13 1 14.2992 3.16406 -6.74738
14 1 13.8938 3.98014 -6.93676
15 1 13.2854 4.34171 -6.37994
16 1 12.3561 4.27275 -6.43509
17 1 11.7273 5.01409 -6.4318
18 1 11.9059 4.9225 -5.48193
19 1 11.2158 4.71482 -4.89507
20 1 10.9445 3.84663 -4.81209
21 1 11.5655 3.4465 -5.40799
22 1 11.1428 3.13618 -6.20198
23 1 10.6379 3.85948 -5.83296
24 1 10.3371 4.75646 -5.99801
25 1 9.49267 4.98503 -6.40878
26 1 8.96528 4.6391 -5.65105
27 1 8.7985 4.58507 -4.71866
28 1 9.01345 3.68419 -4.51228
29 1 8.12718 3.79557 -4.84296
30 1 7.46881 3.16453 -4.55465
31 1 7.404 2.43065 -5.14189
32 1 6.65379 2.71211 -5.79026
33 1 5.86757 2.60758 -6.28016
34 1 5.9087 3.42752 -6.66064
35 1 6.17074 4.1871 -6.11453
36 1 6.81355 4.59125 -5.54431
37 1 6.76116 4.74906 -4.56516
38 1 6.94437 5.3792 -3.87746
39 1 6.70875 5.52592 -2.99094
40 1 7.06146 6.06686 -2.31258
41 1 6.28897 5.6048 -1.98256
42 1 6.58077 4.80962 -1.63182
43 1 7.48854 4.59862 -1.28699
44 1 7.89746 5.426 -1.50634
45 1 8.26268 5.89165 -0.83004
46 1 8.81434 6.2526 -0.0862879
47 1 8.77878 7.19605 0.0836914
48 1 8.07092 7.56743 -0.470474