ITEM: TIMESTEP
0
ITEM: NUMBER OF ATOMS
64
ITEM: BOX BOUNDS mm mm mm
-3.2000000000000000e+01 3.2000000000000000e+01
-3.2000000000000000e+01 3.2000000000000000e+01
-3.2000000000000000e+01 3.2000000000000000e+01
ITEM: ATOMS id type x y z
1 1 -30.4 0 0
2 1 -29.45 0 0
3 1 -28.5 0 0
4 1 -27.55 0 0
5 1 -26.6 0 0
6 1 -25.65 0 0
7 1 -24.7 0 0
8 1 -23.75 0 0
9 1 -22.8 0 0
10 1 -21.85 0 0
11 1 -20.9 0 0
12 1 -19.95 0 0
13 1 -19 0 0
14 1 -18.05 0 0
15 1 -17.1 0 0
16 1 -16.15 0 0
17 1 -15.2 0 0
18 1 -14.25 0 0
19 1 -13.3 0 0
20 1 -12.35 0 0
21 1 -11.4 0 0
22 1 -10.45 0 0
23 1 -9.5 0 0
24 1 -8.55 0 0
25 1 -7.6 0 0
26 1 -6.65 0 0
27 1 -5.7 0 0
28 1 -4.75 0 0
29 1 -3.8 0 0
30 1 -2.85 0 0
31 1 -1.9 0 0
32 1 -0.95 0 0
33 1 0 0 0
34 1 0.95 0 0
35 1 1.9 0 0
36 1 2.85 0 0
37 1 3.8 0 0
38 1 4.75 0 0
39 1 5.7 0 0
40 1 6.65 0 0
41 1 7.6 0 0
42 1 8.55 0 0
43 1 9.5 0 0
44 1 10.45 0 0
45 1 11.4 0 0
46 1 12.35 0 0
47 1 13.3 0 0
48 1 14.25 0 0
49 1 15.2 0 0
50 1 16.15 0 0
51 1 17.1 0 0
52 1 18.05 0 0
53 1 19 0 0
54 1 19.95 0 0
55 1 20.9 0 0
56 1 21.85 0 0
57 1 22.8 0 0
58 1 23.75 0 0
59 1 24.7 0 0
60 1 25.65 0 0
61 1 26.6 0 0
62 1 27.55 0 0
63 1 28.5 0 0
64 1 29.45 0 0
ITEM: TIMESTEP
10000
ITEM: NUMBER OF ATOMS
64
ITEM: BOX BOUNDS mm mm mm
-3.2000000000000000e+01 3.2000000000000000e+01
-3.2000000000000000e+01 3.2000000000000000e+01
-3.2000000000000000e+01 3.2000000000000000e+01
ITEM: ATOMS id type x y z
1 1 -27.4867 -2.73731 -0.560854
2 1 -26.5859 -3.03724 -0.395622
3 1 -25.6784 -2.99731 0.424497
4 1 -25.1751 -3.26645 1.45757
5 1 -24.3535 -3.35874 2.25589
6 1 -23.6591 -3.34272 3.07856
7 1 -22.7875 -3.11828 3.73322
8 1 -22.1811 -2.48139 4.24777
9 1 -21.3092 -1.79414 4.57286
10 1 -20.5662 -1.1402 4.9621
11 1 -19.6438 -0.470355 5.32564
12 1 -18.476 0.0674419 5.38296
13 1 -17.4594 0.609842 5.50861
14 1 -16.5208 0.805769 5.30846
15 1 -15.4203 1.0203 4.87299
16 1 -14.5089 1.24292 4.59972
17 1 -13.4744 1.56682 4.42571
18 1 -12.4796 1.7992 4.25876
19 1 -11.7007 2.30713 3.74291
20 1 -10.6479 2.469 3.64302
21 1 -9.67277 2.21137 3.45935
22 1 -8.58019 2.22206 3.25334
23 1 -7.53192 2.49766 3.53031
24 1 -6.448 2.68824 3.69505
25 1 -5.34484 2.98256 3.81454
26 1 -4.25452 2.89589 3.7867
27 1 -3.24967 2.6273 3.72492
28 1 -2.23831 2.14222 4.12895
29 1 -1.07509 1.89106 4.04277
30 1 0.0435217 1.4743 4.13535
31 1 1.27626 1.48061 4.14633
32 1 2.3605 1.56434 4.40636
33 1 3.30542 1.34005 4.87491
34 1 4.37057 1.20186 5.09805
35 1 5.32263 0.640422 5.01681
36 1 6.20361 0.138686 4.76987
37 1 7.23633 -0.205743 4.79459
38 1 8.36267 -0.371689 4.72489
39 1 9.39368 -0.618096 4.5807
40 1 10.4128 -0.747838 4.54625
41 1 11.5864 -1.07779 4.44759
42 1 12.5659 -1.19352 4.08915
43 1 13.5707 -1.09973 3.41172
44 1 14.5412 -1.29838 3.0013
45 1 15.6053 -1.64892 3.11871
46 1 16.611 -2.21326 2.93161
47 1 17.8641 -2.5528 2.96122
48 1 18.8325 -2.74265 3.32957
49 1 19.8889 -2.78157 3.20861
50 1 20.686 -3.60318 2.91745
51 1 21.3749 -4.26438 2.47824
52 1 22.2309 -4.83429 1.92948
53 1 22.9644 -5.42756 1.42481
54 1 23.9711 -5.6306 1.36313
55 1 25.1381 -5.75133 1.14322
56 1 26.1873 -5.89158 1.11059
57 1 27.2565 -5.57596 1.19165
58 1 28.396 -5.60972 1.54026
59 1 29.3419 -5.58184 1.77676
60 1 30.1652 -5.3125 2.40652
61 1 30.7401 -4.841 3.24374
62 1 31.152 -4.15081 4.12773
63 1 31.6448 -3.40399 4.63362
64 1 31.8486 -2.55395 5.23957
ITEM: TIMESTEP
20000
ITEM: NUMBER OF ATOMS
64
ITEM: BOX BOUNDS mm mm mm
-3.2000000000000000e+01 3.2000000000000000e+01
-3.2000000000000000e+01 3.2000000000000000e+01
-3.2000000000000000e+01 3.2000000000000000e+01
ITEM: ATOMS id type x y z
1 1 -22.9917 -0.992705 3.13538
2 1 -22.1369 -0.917174 3.56294
3 1 -21.4292 -0.746955 4.14219
4 1 -20.6061 -0.87704 4.62588
5 1 -19.9607 -1.08819 5.27663
6 1 -19.069 -1.31327 5.63099
7 1 -18.1513 -1.45326 5.48947
8 1 -17.3001 -1.64487 5.18758
9 1 -16.33 -1.57945 4.911
10 1 -15.5348 -1.31451 4.44756
11 1 -15.0746 -0.753379 3.87374
12 1 -14.3974 -0.467744 3.29523
13 1 -13.6355 -0.396051 2.78474
14 1 -12.8066 -0.383168 2.32509
15 1 -11.9451 -0.439496 1.96806
16 1 -11.0729 -0.730066 1.77513
17 1 -10.2011 -0.986729 1.49905
18 1 -9.31234 -1.19433 1.30308
19 1 -8.489 -1.51585 1.17565
20 1 -7.56612 -1.4959 0.938617
21 1 -6.68423 -1.74882 1.06886
22 1 -5.75713 -1.85646 1.15537
23 1 -4.90362 -1.57094 1.11342
24 1 -4.09748 -1.40652 0.699115
25 1 -3.28124 -1.51469 0.241008
26 1 -2.41118 -1.3944 -0.0944147
27 1 -1.52121 -1.31261 -0.443382
28 1 -0.663097 -1.42373 -0.796461
29 1 0.121206 -1.32935 -1.23884
30 1 0.910299 -1.18511 -1.71857
31 1 1.71794 -1.08065 -2.15959
32 1 2.6449 -0.994338 -2.34631
33 1 3.54659 -1.14505 -2.04508
34 1 4.38177 -1.32699 -1.69824
35 1 5.21849 -1.1357 -1.20172
36 1 5.8664 -1.28099 -0.564756
37 1 6.65764 -1.75542 -0.230635
38 1 7.4601 -2.24401 -0.233868
39 1 8.22526 -2.61557 0.138061
40 1 9.08361 -2.87753 0.399459
41 1 9.89143 -2.39799 0.61744
42 1 10.8444 -2.32067 0.786565
43 1 11.6775 -2.18416 0.471281
44 1 12.6137 -2.30107 0.244764
45 1 13.3009 -2.64418 -0.290168
46 1 14.0424 -3.19268 -0.472636
47 1 14.8435 -3.60079 -0.702532
48 1 15.7575 -3.71893 -0.974246
49 1 16.7361 -3.69556 -1.14584
50 1 17.6363 -3.81297 -1.41299
51 1 18.4418 -3.99216 -1.82945
52 1 19.4157 -4.02898 -1.97614
53 1 20.2682 -4.05769 -2.23461
54 1 21.2249 -4.00371 -2.38355
55 1 22.1582 -3.74562 -2.14475
56 1 22.9193 -3.46003 -1.61457
57 1 23.5819 -2.95492 -1.12563
58 1 24.3844 -2.51354 -0.758324
59 1 25.0175 -1.88789 -0.437874
60 1 25.6473 -1.469 0.133558
61 1 26.2301 -0.936068 0.656513
62 1 27.0285 -0.490763 0.823577
63 1 27.7024 0.11476 1.06717
64 1 28.4543 0.506519 1.41494
