ITEM: TIMESTEP
3760000
ITEM: NUMBER OF ATOMS
64
ITEM: BOX BOUNDS mm mm mm
-6.4169730124704017e+01 3.2000000000000000e+01
-3.2000000000000000e+01 6.8666456666164478e+01
-3.2000000000000000e+01 4.3330317714623270e+01
ITEM: ATOMS id type x y z
1 1 -52.2042 68.5076 43.3228
2 1 -51.2895 68.6564 43.1125
3 1 -50.4065 68.4973 42.8406
4 1 -49.5107 68.2371 42.5269
5 1 -48.7788 67.8074 42.0759
6 1 -48.0665 67.3547 41.7059
7 1 -47.3226 66.7867 41.496
8 1 -46.7656 66.11 41.2454
9 1 -46.2645 65.3412 40.9448
10 1 -46.0029 64.542 40.5701
11 1 -45.8361 63.8913 39.9235
12 1 -45.8519 63.216 39.3303
13 1 -45.9404 62.4068 38.8562
14 1 -46.0484 61.695 38.2338
15 1 -45.9873 60.8572 37.84
16 1 -45.8538 59.9908 37.6634
17 1 -45.7653 59.0989 37.3191
18 1 -45.5719 58.2022 37.1877
19 1 -45.278 57.3479 37.0307
20 1 -44.9585 56.6049 36.6041
21 1 -44.7786 55.7639 36.1103
22 1 -44.8114 54.8718 35.7587
23 1 -44.7506 54.005 35.4188
24 1 -44.8661 53.1803 34.9603
25 1 -45.101 52.3584 34.5174
26 1 -45.3468 51.5929 33.9533
27 1 -45.5538 50.8861 33.4429
28 1 -45.8654 50.1936 32.8948
29 1 -46.0048 49.5148 32.2048
30 1 -46.2843 49.019 31.4495
31 1 -46.7028 48.4636 30.7831
32 1 -47.1639 48.0287 30.1062
33 1 -47.656 47.6489 29.4083
34 1 -48.2255 47.3478 28.6952
35 1 -48.8139 47.113 27.9464
36 1 -49.3297 46.7964 27.2712
37 1 -49.8996 46.2903 26.8065
38 1 -50.3679 45.8331 26.1834
39 1 -50.9489 45.3833 25.5363
40 1 -51.4533 45.0413 24.8565
41 1 -52.2464 44.7609 24.3966
42 1 -52.999 44.6075 23.9028
43 1 -53.7618 44.5398 23.3444
44 1 -54.5323 44.4595 22.74
45 1 -55.3819 44.3633 22.2962
46 1 -56.2836 44.2646 22.0121
47 1 -57.1077 44.2265 21.5974
48 1 -57.8699 44.2784 21.0616
49 1 -58.6522 44.1869 20.5652
50 1 -59.4867 43.8591 20.1954
51 1 -60.1488 43.9987 19.5356
52 1 -60.7611 44.2508 18.9316
53 1 -61.2793 44.6641 18.3579
54 1 -61.7059 45.0863 17.6238
55 1 -62.0958 45.4401 16.8241
56 1 -62.3359 45.5886 15.8583
57 1 -62.4611 45.7863 14.9825
58 1 -62.5018 45.8791 14.0451
59 1 -62.5604 45.9496 13.1142
60 1 -62.8024 46.0752 12.1531
61 1 -63.1247 46.2551 11.3043
62 1 -63.5409 46.639 10.5187
63 1 -63.8787 47.0941 9.76505
64 1 -64.1601 47.3565 8.94097
ITEM: TIMESTEP
3770000
ITEM: NUMBER OF ATOMS
64
ITEM: BOX BOUNDS mm mm mm
-6.9441247164530921e+01 3.2000000000000000e+01
-3.2000000000000000e+01 6.7254409693593772e+01
-3.2000000000000000e+01 4.7921229217191616e+01
ITEM: ATOMS id type x y z
1 1 -39.5181 67.3557 47.5546
2 1 -39.5984 66.7976 46.8655
3 1 -39.4718 66.0656 46.3388
4 1 -39.2493 65.4317 45.6688
5 1 -38.9603 64.8869 44.9385
6 1 -38.8492 64.513 44.0937
7 1 -38.7805 64.271 43.1813
8 1 -38.7891 63.8744 42.3119
9 1 -38.7746 63.5008 41.4292
10 1 -38.8986 63.183 40.5524
11 1 -38.9551 62.8551 39.677
12 1 -38.9895 62.3681 38.8677
13 1 -38.9807 61.8527 38.101
14 1 -39.1907 61.4117 37.26
15 1 -39.3291 60.8646 36.4093
16 1 -39.5062 60.3684 35.5908
17 1 -39.9695 59.924 34.8546
18 1 -40.4201 59.4416 34.1785
19 1 -40.9282 59.0109 33.5204
20 1 -41.3584 58.502 32.9108
21 1 -41.6601 57.9757 32.191
22 1 -42.0183 57.3509 31.5922
23 1 -42.3671 56.712 31.0463
24 1 -42.659 55.9589 30.5214
25 1 -42.8551 55.1512 30.1098
26 1 -43.1197 54.4427 29.6277
27 1 -43.5363 53.6865 29.2404
28 1 -43.8545 53.0381 28.6796
29 1 -44.1995 52.3021 28.0922
30 1 -44.4962 51.705 27.4244
31 1 -44.8249 51.0964 26.7528
32 1 -45.2637 50.5231 26.1995
33 1 -45.8786 49.9346 25.8029
34 1 -46.5061 49.3754 25.4364
35 1 -47.1975 48.8339 25.0467
36 1 -47.9047 48.344 24.7023
37 1 -48.578 47.7373 24.399
38 1 -49.3074 47.2124 24.1676
39 1 -50.0181 46.6414 23.9836
40 1 -50.7164 46.0971 23.8959
41 1 -51.4548 45.5776 23.814
42 1 -52.127 44.9566 23.8804
43 1 -52.7997 44.316 23.8051
44 1 -53.5993 43.8457 23.5644
45 1 -54.4023 43.4284 23.2895
46 1 -55.1952 42.9511 23.0496
47 1 -55.9789 42.5753 22.7827
48 1 -56.7293 42.1058 22.4864
49 1 -57.4743 41.6837 22.1131
50 1 -58.2116 41.2169 21.7064
51 1 -58.8647 40.7408 21.2749
52 1 -59.4631 40.2599 20.7513
53 1 -60.2617 40.0099 20.3519
54 1 -61.0336 39.9008 19.8893
55 1 -61.822 39.663 19.3
56 1 -62.5748 39.4525 18.8224
57 1 -63.3701 39.1662 18.3605
58 1 -64.2179 39.1099 17.9923
59 1 -65.0637 39.0337 17.6758
60 1 -65.8152 38.9732 17.144
61 1 -66.6597 39.0904 16.7316
62 1 -67.4205 39.1954 16.2253
63 1 -68.2905 39.1887 15.9045
64 1 -69.179 39.0917 15.6491
ITEM: TIMESTEP
3780000
ITEM: NUMBER OF ATOMS
64
ITEM: BOX BOUNDS mm mm mm
-6.5778708331628067e+01 3.2000000000000000e+01
-3.2000000000000000e+01 6.8597666393573007e+01
-3.2000000000000000e+01 4.3594706555361938e+01
ITEM: ATOMS id type x y z
1 1 -36.329 67.7819 43.5789
2 1 -36.49 68.1448 42.7347
3 1 -36.7337 68.3785 41.8746
4 1 -37.1293 68.4768 40.995
5 1 -37.5933 68.5767 40.1454
6 1 -38.0027 68.5395 39.3077
7 1 -38.4669 68.4985 38.4981
8 1 -38.9448 68.5386 37.6799
9 1 -39.3608 68.5327 36.8415
10 1 -39.6391 68.3682 35.9576
11 1 -39.7725 68.1977 35.0318
12 1 -39.9572 67.8742 34.1894
13 1 -40.3235 67.4999 33.3557
14 1 -40.5033 67.0261 32.5271
15 1 -40.7435 66.4103 31.8616
16 1 -41.1669 65.8199 31.2663
17 1 -41.5621 65.329 30.5491
18 1 -41.9757 64.789 29.8378
19 1 -42.3346 64.2042 29.1181
20 1 -42.5865 63.5549 28.4638
21 1 -43.0219 63.0088 27.8869
22 1 -43.6023 62.3202 27.4177
23 1 -44.1094 61.7555 26.9413
24 1 -44.6459 61.1637 26.4419
25 1 -45.2386 60.6686 25.855
26 1 -45.9031 60.1607 25.2982
27 1 -46.5277 59.6288 24.8062
28 1 -47.2025 59.0623 24.5291
29 1 -48.0108 58.5398 24.2791
30 1 -48.7721 58.0367 24.1684
31 1 -49.5023 57.454 23.9242
32 1 -50.1697 56.769 23.8648
33 1 -50.9304 56.149 23.7427
34 1 -51.7269 55.688 23.3933
35 1 -52.5739 55.3355 23.1243
36 1 -53.4476 54.8734 22.8288
37 1 -54.2539 54.4084 22.5308
38 1 -55.0195 53.9235 22.2294
39 1 -55.7627 53.498 21.7978
40 1 -56.5416 53.1424 21.3761
41 1 -57.2875 52.6401 21.1034
42 1 -58.0645 52.1311 20.8017
43 1 -58.8049 51.5802 20.6372
44 1 -59.6362 51.0468 20.4775
45 1 -60.3073 50.4456 20.2532
46 1 -60.9165 49.7691 20.0893
47 1 -61.5555 49.1376 20.0753
48 1 -62.0196 48.3571 19.9689
49 1 -62.4589 47.5325 19.71
50 1 -62.9057 46.6776 19.5404
51 1 -63.1396 45.7734 19.57
52 1 -63.3097 44.8691 19.5864
53 1 -63.5014 43.9694 19.6514
54 1 -63.567 43.05 19.695
55 1 -63.6928 42.1377 19.9168
56 1 -63.9352 41.266 20.1374
57 1 -64.1547 40.4106 20.5503
58 1 -64.2474 39.5723 20.936
59 1 -64.4271 38.7843 21.3458
60 1 -64.6779 37.9264 21.6235
61 1 -64.8582 37.0042 21.7726
62 1 -65.007 36.0975 22.0055
63 1 -65.2891 35.2518 22.2382
64 1 -65.824 34.4015 22.4359
ITEM: TIMESTEP
3790000
ITEM: NUMBER OF ATOMS
64
ITEM: BOX BOUNDS mm mm mm
-7.1227269678370220e+01 3.2000000000000000e+01
-3.2000000000000000e+01 7.3180918524853652e+01
-3.2000000000000000e+01 4.1085269687308035e+01
ITEM: ATOMS id type x y z
1 1 -31.4743 73.2259 41.2164
2 1 -32.3679 72.8838 40.966
3 1 -33.265 72.6361 40.7903
4 1 -34.0517 72.2304 40.4552
5 1 -34.665 71.661 40.0339
6 1 -35.2884 71.055 39.7725
7 1 -35.9095 70.4947 39.3738
8 1 -36.5544 69.977 38.8902
9 1 -37.1852 69.3972 38.477
10 1 -37.777 68.8306 37.9902
11 1 -38.5135 68.4066 37.5527
12 1 -39.2369 67.9581 36.985
13 1 -39.7559 67.3706 36.4516
14 1 -40.3116 66.9051 35.8711
15 1 -40.9589 66.4094 35.3686
16 1 -41.6343 66.0074 34.8404
17 1 -42.2405 65.7216 34.2113
18 1 -42.9698 65.3548 33.6178
19 1 -43.6471 64.922 33.1193
20 1 -44.3522 64.5482 32.5841
21 1 -44.9652 64.231 31.9637
22 1 -45.6845 63.8764 31.4699
23 1 -46.4461 63.4702 31.1042
24 1 -47.203 63.0621 30.7713
25 1 -48.1603 62.8265 30.6025
26 1 -49.0816 62.6901 30.3687
27 1 -49.9739 62.5025 30.0658
28 1 -50.6644 62.3358 29.5086
29 1 -51.4182 62.0106 28.9357
30 1 -52.0669 61.5429 28.4916
31 1 -52.6671 60.9122 28.089
32 1 -53.2607 60.2849 27.6875
33 1 -53.7525 59.5192 27.4839
34 1 -54.2699 58.7725 27.2974
35 1 -54.7459 57.9779 27.2239
36 1 -55.2431 57.2401 27.1461
37 1 -55.7828 56.5271 26.9535
38 1 -56.3457 55.8311 26.7055
39 1 -56.6905 55.0686 26.3645
40 1 -57.0598 54.2192 26.0617
41 1 -57.4747 53.4015 25.9444
42 1 -57.9577 52.5739 25.8222
43 1 -58.5873 51.8244 25.6652
44 1 -59.2309 51.1452 25.6038
45 1 -59.832 50.3851 25.6892
46 1 -60.321 49.5527 25.5474
47 1 -60.9113 48.7913 25.4175
48 1 -61.598 48.1307 25.3954
49 1 -62.1657 47.492 25.1283
50 1 -62.7207 46.8112 24.7931
51 1 -63.3542 46.1263 24.5758
52 1 -63.9105 45.4934 24.2468
53 1 -64.4905 44.8901 23.8682
54 1 -65.0444 44.2755 23.3865
55 1 -65.6528 43.718 22.9847
56 1 -66.3159 43.247 22.6089
57 1 -67.065 42.6747 22.3991
58 1 -67.627 41.9347 22.1774
59 1 -68.2362 41.2962 21.9202
60 1 -68.8969 40.6593 21.7085
61 1 -69.538 39.9994 21.4308
62 1 -70.0037 39.2311 21.0646
63 1 -70.3986 38.4138 20.779
64 1 -70.86 37.682 20.4346
ITEM: TIMESTEP
3800000
ITEM: NUMBER OF ATOMS
64
ITEM: BOX BOUNDS mm mm mm
-6.3944140308384853e+01 3.2000000000000000e+01
-3.2000000000000000e+01 8.3092389078456492e+01
-3.2000000000000000e+01 3.7623749940403044e+01
ITEM: ATOMS id type x y z
1 1 -37.9882 82.9346 37.4912
2 1 -37.5774 82.1911 37.1395
3 1 -37.5129 81.319 36.7383
4 1 -37.5188 80.4387 36.4555
5 1 -37.3745 79.5141 36.1417
6 1 -37.3202 78.5793 35.9722
7 1 -37.2843 77.5904 35.8086
8 1 -37.4539 76.6985 35.5735
9 1 -37.6505 75.7241 35.4276
10 1 -38.0273 74.8398 35.4004
11 1 -38.4397 74.0204 35.3365
12 1 -38.6411 73.1377 35.3181
13 1 -38.8099 72.1783 35.3006
14 1 -38.9319 71.2411 35.1051
15 1 -39.1582 70.3365 34.9711
16 1 -39.5203 69.4656 34.7584
17 1 -40.0354 68.7046 34.4381
18 1 -40.5704 68.0711 34.0027
19 1 -41.0793 67.4652 33.4542
20 1 -41.5892 66.8459 32.9917
21 1 -42.1128 66.1036 32.7661
22 1 -42.7188 65.4305 32.4715
23 1 -43.3924 64.8166 32.2897
24 1 -44.1842 64.462 32.0831
25 1 -45.0187 64.0531 31.9058
26 1 -45.8444 63.6249 31.7938
27 1 -46.6839 63.2175 31.8248
28 1 -47.4828 62.726 31.7858
29 1 -48.345 62.3012 31.6212
30 1 -49.1933 61.9168 31.361
31 1 -49.975 61.4286 31.2626
32 1 -50.8242 60.992 31.012
33 1 -51.6136 60.4754 30.8116
34 1 -52.3255 59.9049 30.6084
35 1 -53.0223 59.4034 30.2783
36 1 -53.657 58.749 30.0028
37 1 -54.2063 57.974 29.9842
38 1 -54.7876 57.1886 29.952
39 1 -55.3851 56.4881 29.8082
40 1 -56.1218 55.9254 29.4864
41 1 -56.8348 55.4186 29.0658
42 1 -57.3335 54.6734 28.7329
43 1 -57.8235 53.8641 28.4812
44 1 -58.2245 53.0496 28.2259
45 1 -58.6892 52.2698 27.9584
46 1 -59.0649 51.4831 27.6868
47 1 -59.5455 50.7319 27.5851
48 1 -60.0048 49.9048 27.478
49 1 -60.395 49.0196 27.4692
50 1 -60.6554 48.1068 27.386
51 1 -60.9268 47.2026 27.3208
52 1 -61.2867 46.3722 27.574
53 1 -61.5199 45.4455 27.7399
54 1 -61.9382 44.5476 27.7747
55 1 -62.3571 43.6409 27.7058
56 1 -62.717 42.812 27.5068
57 1 -63.0659 41.9401 27.3724
58 1 -63.4465 41.0853 27.417
59 1 -63.7219 40.249 27.432
60 1 -63.7598 39.3357 27.6141
61 1 -63.8373 38.397 27.7527
62 1 -63.8012 37.4612 27.9629
63 1 -63.7801 36.5752 28.2127
64 1 -63.7991 35.7382 28.5694
ITEM: TIMESTEP
3810000
ITEM: NUMBER OF ATOMS
64
ITEM: BOX BOUNDS mm mm mm
-6.6221307935071167e+01 3.2000000000000000e+01
-3.2000000000000000e+01 8.6283310842731396e+01
-3.2000000000000000e+01 3.8036592923580102e+01
ITEM: ATOMS id type x y z
1 1 -34.0865 86.2756 38.0093
2 1 -34.8723 85.9274 37.6755
3 1 -35.6447 85.4948 37.4609
4 1 -36.5313 85.1306 37.3203
5 1 -37.4248 84.746 37.3311
6 1 -38.2206 84.2877 37.1576
7 1 -39.0599 83.8311 36.981
8 1 -39.869 83.3423 36.7624
9 1 -40.6281 82.7996 36.5956
10 1 -41.326 82.19 36.377
11 1 -41.8844 81.4533 36.2862
12 1 -42.3725 80.6717 36.4074
13 1 -42.7815 79.8372 36.549
14 1 -43.0571 78.9142 36.6731
15 1 -43.3278 78.0115 36.7575
16 1 -43.714 77.1421 36.9795
17 1 -44.1068 76.349 37.1555
18 1 -44.5614 75.5227 37.3693
19 1 -45.0674 74.6787 37.2122
20 1 -45.5377 73.9133 36.9224
21 1 -45.9664 73.0945 36.703
22 1 -46.4822 72.3003 36.52
23 1 -46.9592 71.5441 36.3648
24 1 -47.4266 70.7805 36.0527
25 1 -47.8232 70.0535 35.6548
26 1 -48.1635 69.2284 35.3337
27 1 -48.5077 68.4171 35.0179
28 1 -49.0104 67.675 34.6791
29 1 -49.4706 66.8354 34.4025
30 1 -49.8518 66.0484 34.0446
31 1 -50.3062 65.3088 33.5939
32 1 -50.7086 64.5698 33.1861
33 1 -51.2566 63.9916 32.7623
34 1 -51.6624 63.2693 32.3196
35 1 -51.9467 62.4681 31.9329
36 1 -52.2452 61.6704 31.5456
37 1 -52.511 60.8581 31.1719
38 1 -52.7192 60.009 30.9386
39 1 -52.8333 59.0894 30.7769
40 1 -52.9447 58.1192 30.6661
41 1 -53.1791 57.22 30.5457
42 1 -53.3996 56.3615 30.211
43 1 -53.6714 55.4776 30.1175
44 1 -54.1404 54.6301 30.0416
45 1 -54.6505 53.8843 30.0611
46 1 -55.3059 53.183 30.097
47 1 -55.7689 52.4221 30.2308
48 1 -56.2507 51.6792 30.4117
49 1 -56.6743 50.8784 30.5967
50 1 -57.1642 50.0722 30.8256
51 1 -57.6909 49.3463 31.0543
52 1 -58.2077 48.5163 31.3079
53 1 -58.7594 47.7676 31.5011
54 1 -59.4631 47.2061 31.6085
55 1 -60.1288 46.493 31.7124
56 1 -60.9049 45.9374 31.7775
57 1 -61.7331 45.5074 31.7708
58 1 -62.4831 44.9405 31.8805
59 1 -63.1113 44.2956 31.9851
60 1 -63.653 43.5489 32.0287
61 1 -64.1881 42.8077 32.098
62 1 -64.8381 42.134 32.2991
63 1 -65.5215 41.5694 32.6158
64 1 -66.2145 41.1234 33.0661
ITEM: TIMESTEP
3820000
ITEM: NUMBER OF ATOMS
64
ITEM: BOX BOUNDS mm mm mm
-6.4795204022574850e+01 3.2000000000000000e+01
-3.2000000000000000e+01 8.6593724954152421e+01
-3.2000000000000000e+01 3.7313377041353661e+01
ITEM: ATOMS id type x y z
1 1 -35.1417 86.8046 36.5587
2 1 -35.9102 86.3152 36.8207
3 1 -36.5511 85.7468 37.1209
4 1 -37.0832 85.0102 37.2703
5 1 -37.6446 84.2915 37.4705
6 1 -38.2716 83.5561 37.4286
7 1 -38.8512 82.8474 37.3716
8 1 -39.0866 81.9525 37.3325
9 1 -39.1804 81.0316 37.2251
10 1 -39.3122 80.0701 36.961
11 1 -39.4559 79.1864 36.6528
12 1 -39.7119 78.328 36.4699
13 1 -39.9458 77.5175 36.1178
14 1 -40.0453 76.6853 35.7015
15 1 -40.1823 75.8364 35.3037
16 1 -40.5692 75.0916 34.8323
17 1 -41.0107 74.3844 34.3715
18 1 -41.4118 73.7327 33.8135
19 1 -41.9256 73.215 33.2513
20 1 -42.5056 72.7611 32.6389
21 1 -43.1244 72.2234 32.1563
22 1 -43.5928 71.6565 31.6439
23 1 -44.1053 70.9911 31.2517
24 1 -44.6682 70.2994 30.8372
25 1 -45.1641 69.5202 30.55
26 1 -45.642 68.744 30.4203
27 1 -46.1733 67.945 30.3278
28 1 -46.732 67.1581 30.3518
29 1 -47.3116 66.4027 30.3729
30 1 -47.9696 65.7511 30.5245
31 1 -48.5693 65.1033 30.7069
32 1 -49.0881 64.3772 30.951
33 1 -49.5874 63.552 31.0536
34 1 -50.0498 62.7645 31.2795
35 1 -50.558 61.9487 31.4668
36 1 -50.9806 61.1931 31.7025
37 1 -51.5385 60.4556 31.8517
38 1 -52.1001 59.704 32.0608
39 1 -52.7088 58.9969 32.1428
40 1 -53.3791 58.3124 32.0389
41 1 -54.1783 57.7684 31.7692
42 1 -54.8916 57.1644 31.5813
43 1 -55.5671 56.5378 31.3095
44 1 -56.1394 55.9122 31.0708
45 1 -56.6258 55.2166 30.7039
46 1 -57.2956 54.7018 30.4054
47 1 -57.9727 54.1469 30.1394
48 1 -58.724 53.6145 29.9036
49 1 -59.4193 52.9952 29.539
50 1 -60.0141 52.3466 29.28
51 1 -60.5505 51.6536 28.9195
52 1 -61.0382 50.8493 28.6802
53 1 -61.5119 50.0108 28.6063
54 1 -61.9049 49.0997 28.557
55 1 -62.1499 48.1244 28.6476
56 1 -62.4125 47.2322 28.6641
57 1 -62.6058 46.2852 28.667
58 1 -62.9454 45.4158 28.5652
59 1 -63.3288 44.5747 28.5274
60 1 -63.8043 43.8436 28.2553
61 1 -64.1659 43.0208 27.999
62 1 -64.5302 42.1904 27.7372
63 1 -64.8988 41.3898 27.6503
64 1 -65.2584 40.5265 27.464
ITEM: TIMESTEP
3830000
ITEM: NUMBER OF ATOMS
64
ITEM: BOX BOUNDS mm mm mm
-6.2665230772897480e+01 3.2000000000000000e+01
-3.2000000000000000e+01 9.3752977482466861e+01
-3.2000000000000000e+01 3.5643444039625948e+01
ITEM: ATOMS id type x y z
1 1 -43.2964 93.7015 35.6012
2 1 -43.4511 92.7807 35.3954
3 1 -43.4984 91.8815 35.1639
4 1 -43.5604 90.9896 34.8953
5 1 -43.5313 90.1018 34.6059
6 1 -43.4385 89.2232 34.2973
7 1 -43.364 88.3169 33.9971
8 1 -43.2824 87.3626 33.762
9 1 -43.066 86.4973 33.6039
10 1 -42.7635 85.6601 33.4217
11 1 -42.6597 84.7309 33.2523
12 1 -42.87 83.8479 33.0857
13 1 -43.1975 82.9846 33.2727
14 1 -43.4145 82.0306 33.4339
15 1 -43.6275 81.0988 33.5424
16 1 -43.884 80.1907 33.8546
17 1 -44.0661 79.2846 34.021
18 1 -44.0901 78.3602 34.0719
19 1 -44 77.4331 34.0583
20 1 -43.804 76.4983 34.0987
21 1 -43.5954 75.5457 34.0361
22 1 -43.4925 74.6107 33.9971
23 1 -43.4049 73.6919 33.7795
24 1 -43.2865 72.8457 33.5524
25 1 -43.3156 71.9944 33.1749
26 1 -43.4011 71.1507 32.8694
27 1 -43.5983 70.3876 32.3381
28 1 -43.6789 69.6596 31.7438
29 1 -43.7399 68.8239 31.3722
30 1 -43.8368 68.0552 30.9501
31 1 -44.1417 67.2516 30.6455
32 1 -44.5088 66.4821 30.3308
33 1 -44.9021 65.7301 30.0558
34 1 -45.2285 64.8503 30.0164
35 1 -45.7288 64.0918 29.9796
36 1 -46.186 63.2784 29.965
37 1 -46.5796 62.4565 29.7232
38 1 -47.0028 61.552 29.7242
39 1 -47.4981 60.7733 29.8226
40 1 -48.3057 60.098 29.8177
41 1 -49.1474 59.5196 29.6215
42 1 -49.9029 59.005 29.3366
43 1 -50.7672 58.6855 29.1499
44 1 -51.6117 58.3137 28.9321
45 1 -52.3399 57.7433 28.8763
46 1 -53.0931 57.2067 28.7276
47 1 -53.8349 56.795 28.3629
48 1 -54.5892 56.3037 28.0549
49 1 -55.4087 55.8349 27.9097
50 1 -56.1848 55.3003 27.8191
51 1 -56.9474 54.7867 27.9899
52 1 -57.6979 54.3034 28.211
53 1 -58.4299 53.7385 28.3535
54 1 -59.0395 52.9835 28.4209
55 1 -59.5876 52.2084 28.4991
56 1 -60.0085 51.3335 28.404
57 1 -60.5146 50.4726 28.4339
58 1 -60.9679 49.6547 28.5482
59 1 -61.2438 48.8184 28.7391
60 1 -61.4651 47.9076 28.9234
61 1 -61.8059 47.0334 29.0258
62 1 -62.1429 46.2125 29.2715
63 1 -62.4619 45.3814 29.4195
64 1 -62.7737 44.5314 29.6248
ITEM: TIMESTEP
3840000
ITEM: NUMBER OF ATOMS
64
ITEM: BOX BOUNDS mm mm mm
-6.4348817778524023e+01 3.2000000000000000e+01
-3.2000000000000000e+01 9.3056184254059360e+01
-3.2000000000000000e+01 3.2000000000000000e+01
ITEM: ATOMS id type x y z
1 1 -42.4323 93.0147 30.536
2 1 -42.3801 92.0618 30.3358
3 1 -42.297 91.1002 30.1935
4 1 -42.2294 90.1658 30.0563
5 1 -42.1244 89.2879 29.7493
6 1 -41.8163 88.4378 29.5253
7 1 -41.3162 87.5395 29.5203
8 1 -40.9371 86.669 29.481
9 1 -40.7644 85.7662 29.1931
10 1 -40.7306 84.9117 28.8245
11 1 -40.7108 84.0466 28.4614
12 1 -40.6796 83.2264 28.1334
13 1 -40.6482 82.3767 27.9192
14 1 -40.6407 81.4574 27.8421
15 1 -40.8311 80.5717 27.7178
16 1 -41.1029 79.6978 27.4986
17 1 -41.2609 78.8446 27.1455
18 1 -41.4076 77.9109 27.1119
19 1 -41.6072 76.9374 27.1868
20 1 -41.7748 75.9646 27.1469
21 1 -41.9553 75.087 27.0123
22 1 -42.1074 74.1494 26.9705
23 1 -42.2011 73.1798 26.9363
24 1 -42.288 72.2739 26.905
25 1 -42.4556 71.3981 26.8387
26 1 -42.7552 70.482 26.6986
27 1 -42.9606 69.5936 26.4441
28 1 -43.1068 68.7352 26.1423
29 1 -43.3703 67.8173 25.99
30 1 -43.7906 66.9739 25.9383
31 1 -44.0824 66.0876 26.0528
32 1 -44.5918 65.2604 26.2449
33 1 -45.1386 64.5601 26.2466
34 1 -45.7487 63.8549 26.2572
35 1 -46.3468 63.1416 26.2848
36 1 -46.9977 62.4834 26.1981
37 1 -47.769 62.0036 26.0607
38 1 -48.4405 61.3416 26.0924
39 1 -49.2763 60.8045 26.09
40 1 -50.1124 60.4569 26.2547
41 1 -50.9546 60.1007 26.4011
42 1 -51.8458 59.8112 26.6214
43 1 -52.7405 59.5828 26.7352
44 1 -53.6094 59.3179 26.8222
45 1 -54.522 58.9945 26.7609
46 1 -55.3847 58.5857 26.6194
47 1 -56.1908 58.2224 26.3454
48 1 -56.959 57.6673 26.1671
49 1 -57.6701 57.0554 25.9569
50 1 -58.2577 56.3592 25.9037
51 1 -58.7088 55.6035 26.0276
52 1 -59.1905 54.8575 26.2423
53 1 -59.6751 53.9929 26.2743
54 1 -60.0868 53.1919 26.4099
55 1 -60.5461 52.3716 26.6032
56 1 -60.88 51.5177 26.8374
57 1 -61.3964 50.7592 27.108
58 1 -61.8407 49.8885 27.2578
59 1 -62.3232 49.0126 27.2747
60 1 -62.7238 48.1658 27.2958
61 1 -63.0941 47.2919 27.2535
62 1 -63.4424 46.3292 27.2554
63 1 -63.8687 45.4588 27.2275
64 1 -64.3108 44.7105 27.0159
ITEM: TIMESTEP
3850000
ITEM: NUMBER OF ATOMS
64
ITEM: BOX BOUNDS mm mm mm
-6.9494293614674589e+01 3.2000000000000000e+01
-3.2000000000000000e+01 9.2409275966402262e+01
-3.2000000000000000e+01 3.5731874027070717e+01
ITEM: ATOMS id type x y z
1 1 -42.8801 92.6407 35.5004
2 1 -42.3718 92.0844 34.9072
3 1 -42.0005 91.4508 34.2626
4 1 -41.7065 90.8486 33.6225
5 1 -41.6739 90.0135 33.2269
6 1 -41.6727 89.1492 32.8328
7 1 -41.4961 88.3709 32.3959
8 1 -41.3712 87.4987 32.0341
9 1 -41.5341 86.6805 31.6036
10 1 -41.6402 85.7737 31.3261
11 1 -41.8891 84.8532 31.1051
12 1 -41.9828 83.9128 31.0904
13 1 -42.1307 83.0387 30.885
14 1 -42.3964 82.2236 30.4555
15 1 -42.7324 81.3667 30.1278
16 1 -43.2229 80.6336 29.8827
17 1 -43.651 79.8424 29.656
18 1 -44.0236 79.0738 29.4324
19 1 -44.4451 78.2416 29.0563
20 1 -44.8481 77.4517 28.7856
21 1 -45.2613 76.7188 28.3209
22 1 -45.7605 76.1264 27.8127
23 1 -46.1865 75.388 27.4033
24 1 -46.5607 74.601 27.0639
25 1 -46.8357 73.7794 26.7116
26 1 -47.2037 72.9665 26.4138
27 1 -47.5566 72.2243 26.0243
28 1 -48.0423 71.4308 25.6227
29 1 -48.5125 70.6819 25.4532
30 1 -49.0289 69.9428 25.2394
31 1 -49.5751 69.2156 25.1709
32 1 -49.9658 68.3699 25.1619
33 1 -50.395 67.4677 25.2919
34 1 -50.7732 66.611 25.4955
35 1 -51.0109 65.7688 25.7291
36 1 -51.3254 64.8011 25.8333
37 1 -51.6216 63.9118 25.9858
38 1 -51.944 63.0546 26.3119
39 1 -52.3209 62.2162 26.5033
40 1 -52.8191 61.3891 26.6117
41 1 -53.415 60.6589 26.6993
42 1 -54.1053 59.9783 26.6852
43 1 -54.9192 59.4891 26.5785
44 1 -55.717 58.9509 26.6734
45 1 -56.4264 58.3949 26.6733
46 1 -57.2232 57.9018 26.6762
47 1 -58.0625 57.473 26.5973
48 1 -58.9311 57.1096 26.5977
49 1 -59.702 56.5625 26.5575
50 1 -60.3657 55.8145 26.65
51 1 -61.0388 55.2122 26.7471
52 1 -61.763 54.6828 26.4627
53 1 -62.5111 54.1449 26.3088
54 1 -63.3455 53.6165 26.306
55 1 -64.114 53.0491 26.346
56 1 -64.8389 52.4617 26.4378
57 1 -65.57 51.9085 26.5824
58 1 -66.1709 51.2639 26.7557
59 1 -66.7274 50.5121 26.7837
60 1 -67.2589 49.718 26.6178
61 1 -67.8076 48.9223 26.4303
62 1 -68.3179 48.045 26.2093
63 1 -68.8109 47.2454 26.0158
64 1 -69.383 46.5977 25.747
ITEM: TIMESTEP
3860000
ITEM: NUMBER OF ATOMS
64
ITEM: BOX BOUNDS mm mm mm
-6.7468372763163615e+01 3.2000000000000000e+01
-3.2000000000000000e+01 9.2017981458757546e+01
-3.2000000000000000e+01 3.2921611374480179e+01
ITEM: ATOMS id type x y z
1 1 -41.3597 91.6842 32.654
2 1 -41.7311 90.7832 32.8141
3 1 -41.9361 89.872 32.9525
4 1 -42.0803 88.9681 32.9635
5 1 -42.2932 88.0078 32.8849
6 1 -42.5756 87.1462 32.8626
7 1 -42.9296 86.29 32.7492
8 1 -43.1763 85.4139 32.7617
9 1 -43.5372 84.5499 32.5395
10 1 -43.7815 83.731 32.2085
11 1 -44.2242 83.0261 31.8756
12 1 -44.6727 82.2612 31.4733
13 1 -45.0027 81.3826 31.3297
14 1 -45.372 80.5417 31.176
15 1 -45.5779 79.5968 31.0262
16 1 -45.6562 78.6808 31.0566
17 1 -45.7459 77.7543 31.0956
18 1 -45.9561 76.822 31.1792
19 1 -46.1041 75.8935 31.1082
20 1 -46.4914 75.0314 31.1016
21 1 -46.9684 74.219 30.9882
22 1 -47.5313 73.4787 31.0917
23 1 -48.0802 72.761 31.0153
24 1 -48.6851 72.0419 30.9051
25 1 -49.2765 71.354 30.7766
26 1 -49.9249 70.6917 30.7588
27 1 -50.637 70.0609 30.6478
28 1 -51.3284 69.4073 30.4874
29 1 -52.0641 68.8789 30.4635
30 1 -52.8512 68.2886 30.4187
31 1 -53.6436 67.6878 30.1933
32 1 -54.5154 67.2251 29.9641
33 1 -55.3405 66.7836 29.6305
34 1 -56.0722 66.361 29.3121
35 1 -56.8515 65.9356 28.9305
36 1 -57.4255 65.4916 28.2656
37 1 -57.9672 64.9429 27.7078
38 1 -58.5809 64.422 27.2112
39 1 -59.069 63.8806 26.6382
40 1 -59.6133 63.234 26.2825
41 1 -60.2423 62.6104 26.0197
42 1 -60.9754 61.9646 25.9496
43 1 -61.5672 61.286 25.826
44 1 -62.0299 60.5103 25.7739
45 1 -62.4586 59.74 25.7595
46 1 -62.9712 58.9324 25.6013
47 1 -63.3755 58.0996 25.6099
48 1 -63.6953 57.1762 25.5932
49 1 -63.9317 56.2885 25.6217
50 1 -64.0483 55.3893 25.631
51 1 -64.2521 54.4799 25.5985
52 1 -64.5839 53.6125 25.3608
53 1 -64.7879 52.6826 25.3257
54 1 -65.0602 51.7989 25.4162
55 1 -65.0443 50.9067 25.5959
56 1 -65.1019 50.0241 26.0074
57 1 -65.2448 49.1271 26.2844
58 1 -65.642 48.4052 26.686
59 1 -65.9896 47.628 27.0118
60 1 -66.2749 46.9339 27.6039
61 1 -66.6162 46.3193 28.2346
62 1 -67.0561 45.6937 28.7501
63 1 -67.4085 45.0497 29.3458
64 1 -68.0309 44.4647 29.7082
ITEM: TIMESTEP
3870000
ITEM: NUMBER OF ATOMS
64
ITEM: BOX BOUNDS mm mm mm
-6.8925992520477379e+01 3.2000000000000000e+01
-3.2000000000000000e+01 9.4204057440044821e+01
-3.2000000000000000e+01 3.4139820619801512e+01
ITEM: ATOMS id type x y z
1 1 -48.8764 94.1405 34.4814
2 1 -48.9638 93.2351 34.325
3 1 -48.9828 92.3321 34.0723
4 1 -49.0096 91.376 34.0048
5 1 -49.0246 90.489 33.7815
6 1 -48.8579 89.6064 33.5415
7 1 -48.8161 88.7114 33.293
8 1 -48.7067 87.8304 33.0913
9 1 -48.7574 86.9075 32.8388
10 1 -48.9963 86.0657 32.6421
11 1 -49.1481 85.1486 32.443
12 1 -49.1977 84.2585 32.2639
13 1 -49.2841 83.3361 32.1671
14 1 -49.3975 82.3816 32.0234
15 1 -49.6223 81.5494 31.7922
16 1 -49.9887 80.765 31.4417
17 1 -50.5586 80.0838 31.1593
18 1 -51.0627 79.4287 30.7704
19 1 -51.582 78.8525 30.2817
20 1 -51.978 78.149 29.8343
21 1 -52.3138 77.4505 29.3559
22 1 -52.7087 76.736 28.8988
23 1 -53.0504 75.9646 28.4656
24 1 -53.3772 75.2707 27.9584
25 1 -53.8572 74.695 27.409
26 1 -54.5671 74.0497 27.1456
27 1 -55.1646 73.4039 26.9049
28 1 -55.6659 72.6761 26.6772
29 1 -56.1655 71.8509 26.4987
30 1 -56.7272 71.1194 26.2882
31 1 -57.1184 70.2665 26.1113
32 1 -57.3821 69.3712 25.9176
33 1 -57.7571 68.5576 25.6399
34 1 -58.1697 67.6742 25.2757
35 1 -58.4203 66.7672 25.1319
36 1 -58.4841 65.8426 25.0883
37 1 -58.6554 64.9033 24.9649
38 1 -58.9765 64.0468 24.734
39 1 -59.2782 63.1595 24.6507
40 1 -59.616 62.2732 24.5837
41 1 -59.7344 61.3516 24.5715
42 1 -59.6911 60.4214 24.8094
43 1 -59.9073 59.5109 25.0129
44 1 -60.0624 58.6639 25.3573
45 1 -60.2212 57.7705 25.704
46 1 -60.3716 56.9015 25.9928
47 1 -60.5214 56.0216 26.1763
48 1 -60.6787 55.113 26.4944
49 1 -61.1232 54.3092 26.6796
50 1 -61.5205 53.5681 27.0579
51 1 -61.8835 52.8574 27.524
52 1 -62.3251 52.173 27.9922
53 1 -62.8246 51.4495 28.2848
54 1 -63.4978 50.8305 28.6085
55 1 -64.1728 50.2638 28.9566
56 1 -64.7599 49.5412 29.2622
57 1 -65.3441 48.8153 29.4817
58 1 -65.9712 48.1211 29.7842
59 1 -66.6186 47.4222 30.1113
60 1 -67.1032 46.8613 30.6733
61 1 -67.5955 46.3405 31.2628
62 1 -68.0691 45.7179 31.7402
63 1 -68.5243 45.0031 32.2252
64 1 -69.0284 44.2888 32.6076
ITEM: TIMESTEP
3880000
ITEM: NUMBER OF ATOMS
64
ITEM: BOX BOUNDS mm mm mm
-6.9459430637816624e+01 3.2000000000000000e+01
-3.2000000000000000e+01 9.0155279888348005e+01
-3.2000000000000000e+01 3.3518750181669077e+01
ITEM: ATOMS id type x y z
1 1 -52.0082 90.6663 33.0304
2 1 -52.217 89.8575 32.6537
3 1 -52.4549 89.1083 32.073
4 1 -52.7443 88.3312 31.6093
5 1 -53.0981 87.605 31.1585
6 1 -53.629 86.8718 30.7448
7 1 -54.0468 86.1509 30.3003
8 1 -54.5369 85.5024 29.8242
9 1 -54.9787 84.7698 29.3975
10 1 -55.5582 84.0227 29.1782
11 1 -56.097 83.2732 29.0733
12 1 -56.5969 82.5264 28.8439
13 1 -56.9324 81.6689 28.5278
14 1 -57.2348 80.7715 28.4895
15 1 -57.4044 79.8372 28.3241
16 1 -57.6401 78.965 28.1355
17 1 -57.7422 78.0592 27.9164
18 1 -57.9061 77.19 27.6592
19 1 -58.001 76.274 27.3657
20 1 -57.9419 75.3955 26.989
21 1 -57.8729 74.5242 26.7079
22 1 -57.8943 73.5979 26.456
23 1 -57.9523 72.6402 26.4882
24 1 -57.9491 71.7095 26.4513
25 1 -57.7609 70.7786 26.2883
26 1 -57.4262 69.8834 26.1416
27 1 -57.1266 69.0281 25.8684
28 1 -56.8746 68.1996 25.5383
29 1 -56.7211 67.2888 25.2906
30 1 -56.6442 66.4471 24.8502
31 1 -56.4714 65.6506 24.3464
32 1 -56.3598 64.7332 24.0641
33 1 -56.4504 63.8369 23.7349
34 1 -56.6085 62.9565 23.4216
35 1 -56.8037 62.0496 23.2628
36 1 -57.0693 61.097 23.2067
37 1 -57.1822 60.2312 22.9632
38 1 -57.2853 59.3406 22.7195
39 1 -57.4924 58.4945 22.5005
40 1 -57.7331 57.5924 22.3718
41 1 -57.9971 56.6964 22.3132
42 1 -58.2606 55.8275 22.2315
43 1 -58.5605 54.9525 22.3443
44 1 -59.1027 54.2684 22.6039
45 1 -59.5501 53.4601 22.8704
46 1 -60.0387 52.8174 23.318
47 1 -60.5492 52.1702 23.6711
48 1 -60.9616 51.5343 24.2639
49 1 -61.4206 50.8628 24.8097
50 1 -61.8485 50.2074 25.3162
51 1 -62.1806 49.4813 25.8126
52 1 -62.5672 48.7763 26.2868
53 1 -62.9312 48.0784 26.7847
54 1 -63.3749 47.2952 26.9841
55 1 -63.8535 46.4998 27.0427
56 1 -64.3891 45.7515 27.2135
57 1 -64.8018 44.9609 27.3556
58 1 -65.2833 44.1228 27.3782
59 1 -65.8663 43.3335 27.4945
60 1 -66.4972 42.5962 27.5303
61 1 -67.2333 42.0063 27.4995
62 1 -68.0436 41.4426 27.5714
63 1 -68.8326 40.8983 27.652
64 1 -69.6358 40.3842 27.7248
ITEM: TIMESTEP
3890000
ITEM: NUMBER OF ATOMS
64
ITEM: BOX BOUNDS mm mm mm
-6.6926116246346197e+01 3.2000000000000000e+01
-3.2000000000000000e+01 8.5927067321627263e+01
-3.2000000000000000e+01 3.8232986359264054e+01
ITEM: ATOMS id type x y z
1 1 -47.7846 85.844 37.7648
2 1 -48.3929 85.1496 37.6684
3 1 -48.9988 84.4555 37.6475
4 1 -49.6385 83.7006 37.6494
5 1 -50.2631 82.9699 37.5718
6 1 -50.9063 82.3533 37.2817
7 1 -51.4953 81.6781 36.9549
8 1 -52.0671 81.0813 36.5282
9 1 -52.6516 80.4862 36.106
10 1 -53.256 79.787 35.7561
11 1 -53.8388 79.1297 35.2869
12 1 -54.3032 78.4529 34.8272
13 1 -54.7525 77.9368 34.1812
14 1 -55.2288 77.4115 33.5423
15 1 -55.7453 76.8784 32.9581
16 1 -56.296 76.3362 32.4634
17 1 -56.7094 75.6976 31.984
18 1 -57.2702 75.0992 31.6124
19 1 -57.9129 74.4892 31.2975
20 1 -58.5876 73.8957 31.0482
21 1 -59.2923 73.3488 30.8198
22 1 -59.8486 72.5856 30.5619
23 1 -60.3312 71.8316 30.3283
24 1 -60.6715 71.0546 29.9454
25 1 -61.079 70.265 29.5779
26 1 -61.3018 69.4308 29.2542
27 1 -61.434 68.5655 28.8967
28 1 -61.7461 67.7877 28.4511
29 1 -61.959 67.1368 27.8611
30 1 -62.0564 66.3509 27.201
31 1 -61.972 65.5622 26.579
32 1 -61.9762 64.7377 26.1192
33 1 -61.857 63.8064 25.926
34 1 -61.7779 62.8822 25.9783
35 1 -61.6399 61.9899 26.067
36 1 -61.4161 61.083 26.1831
37 1 -61.3338 60.1084 26.257
38 1 -61.2112 59.2296 26.3483
39 1 -61.0762 58.3199 26.6165
40 1 -61.1411 57.3019 26.8054
41 1 -61.273 56.3866 26.9417
42 1 -61.4554 55.4207 27.0328
43 1 -61.6306 54.4843 26.8894
44 1 -61.7561 53.5735 26.8218
45 1 -61.6711 52.6033 26.6804
46 1 -61.5353 51.6742 26.3914
47 1 -61.4634 50.7814 26.1618
48 1 -61.45 49.9328 25.8483
49 1 -61.5414 48.9297 25.6461
50 1 -61.6796 47.9337 25.5531
51 1 -62.044 47.1486 25.2126
52 1 -62.2773 46.2848 24.828
53 1 -62.6709 45.5609 24.443
54 1 -63.2167 44.7629 24.1334
55 1 -63.7644 44.0886 23.8199
56 1 -64.3565 43.4071 23.5745
57 1 -64.9627 42.7518 23.3029
58 1 -65.5019 42.0468 22.9898
59 1 -65.9619 41.1988 22.8228
60 1 -66.241 40.3916 22.5399
61 1 -66.4649 39.4766 22.478
62 1 -66.6755 38.5886 22.6371
63 1 -66.9318 37.7456 22.9632
64 1 -67.2336 36.8919 23.2113
ITEM: TIMESTEP
3900000
ITEM: NUMBER OF ATOMS
64
ITEM: BOX BOUNDS mm mm mm
-6.4491687189524711e+01 3.2000000000000000e+01
-3.2000000000000000e+01 8.7876294806516157e+01