ITEM: TIMESTEP
1850000
ITEM: NUMBER OF ATOMS
64
ITEM: BOX BOUNDS mm mm mm
-3.7949333540979431e+01 3.2000000000000000e+01
-3.2000000000000000e+01 3.6601635349893677e+01
-3.2000000000000000e+01 3.2000000000000000e+01
ITEM: ATOMS id type x y z
1 1 -4.51215 36.5952 9.07285
2 1 -4.14969 35.715 8.88577
3 1 -3.77004 34.8223 8.80634
4 1 -3.41784 33.9308 8.6252
5 1 -3.19448 33.0448 8.65024
6 1 -3.12918 32.1149 8.61391
7 1 -2.96339 31.1912 8.52641
8 1 -3.02382 30.1945 8.70803
9 1 -3.37086 29.3337 8.55963
10 1 -3.65335 28.4802 8.61544
11 1 -3.8146 27.6157 8.96308
12 1 -4.02771 26.9559 9.61677
13 1 -4.31851 26.5331 10.4003
14 1 -4.54152 25.8949 11.0625
15 1 -4.75594 25.2334 11.7283
16 1 -4.73136 24.4811 12.293
17 1 -4.72714 23.7364 12.9396
18 1 -4.52096 23.0365 13.5571
19 1 -4.4769 22.231 14.1195
20 1 -4.67743 21.5682 14.8168
21 1 -5.07211 20.8862 15.2908
22 1 -5.60815 20.1804 15.6076
23 1 -5.98661 19.3655 15.9516
24 1 -6.43085 18.5759 16.2124
25 1 -7.07501 17.9547 16.4681
26 1 -7.64981 17.3468 16.852
27 1 -8.41063 16.8809 17.2434
28 1 -9.10383 16.4088 17.7671
29 1 -9.61755 15.6914 18.0537
30 1 -10.1858 14.8972 18.2397
31 1 -10.7634 14.1553 18.3377
32 1 -11.4557 13.6326 18.0231
33 1 -12.221 13.068 17.8948
34 1 -12.9847 12.6639 17.5874
35 1 -13.6518 12.2005 17.1571
36 1 -14.143 11.6575 16.5935
37 1 -14.864 11.3314 16.1036
38 1 -15.6273 11.05 15.5193
39 1 -16.5052 10.8335 15.3362
40 1 -17.4162 10.5821 15.4232
41 1 -18.3414 10.5188 15.2951
42 1 -19.2211 10.4268 15.0201
43 1 -20.1402 10.5692 14.7382
44 1 -21.0715 10.6716 14.4896
45 1 -21.9869 10.5882 14.2456
46 1 -22.8234 10.8238 13.9065
47 1 -23.6603 11.0499 13.5452
48 1 -24.5533 11.1168 13.1544
49 1 -25.4566 11.2483 12.97
50 1 -26.3887 11.3609 12.8951
51 1 -27.2842 11.3551 12.7857
52 1 -28.1706 11.4898 13.139
53 1 -28.9947 11.7687 13.5687
54 1 -29.9108 11.9319 13.841
55 1 -30.784 12.1785 14.0245
56 1 -31.6798 12.3687 14.1041
57 1 -32.629 12.5675 14.1703
58 1 -33.5125 12.7626 14.3409
59 1 -34.3643 13.0296 14.548
60 1 -35.2083 13.5446 14.7782
61 1 -35.9552 13.9905 15.051
62 1 -36.6874 14.5835 15.2286
63 1 -37.3275 15.1501 15.5753
64 1 -37.9429 15.6403 16.0893
ITEM: TIMESTEP
1860000
ITEM: NUMBER OF ATOMS
64
ITEM: BOX BOUNDS mm mm mm
-3.8190820315421277e+01 3.2000000000000000e+01
-3.2000000000000000e+01 3.9217811369523801e+01
-3.2000000000000000e+01 3.2000000000000000e+01
ITEM: ATOMS id type x y z
1 1 -5.97047 39.1121 9.37732
2 1 -6.17649 38.2314 9.12374
3 1 -6.2269 37.3142 9.06217
4 1 -6.08726 36.3659 8.84067
5 1 -6.19813 35.525 8.40622
6 1 -6.41535 34.786 7.89573
7 1 -6.35446 33.9087 7.58837
8 1 -6.34645 33.009 7.53002
9 1 -6.42001 32.0683 7.6042
10 1 -6.46225 31.1239 7.45496
11 1 -6.45346 30.1853 7.25806
12 1 -6.3151 29.2404 7.43884
13 1 -6.46842 28.3703 7.74183
14 1 -6.74647 27.6282 8.25606
15 1 -7.08966 26.8597 8.64691
16 1 -7.50802 26.0295 8.88948
17 1 -7.6522 25.1543 9.12267
18 1 -7.87971 24.2802 9.34352
19 1 -8.12916 23.3207 9.33012
20 1 -8.36603 22.3916 9.31847
21 1 -8.65514 21.4617 9.07242
22 1 -9.12838 20.6932 8.88361
23 1 -9.69084 20.0591 8.50722
24 1 -10.1908 19.2779 8.29724
25 1 -10.5655 18.4664 8.30944
26 1 -10.9944 17.6352 8.28636
27 1 -11.4305 16.8047 8.36867
28 1 -11.8778 15.9103 8.56555
29 1 -12.2796 15.0894 8.68551
30 1 -12.7897 14.3894 8.98164
31 1 -13.4472 13.7345 9.16744
32 1 -14.0329 13.1798 9.48284
33 1 -14.6941 12.5282 9.80386
34 1 -15.3131 11.9639 10.2605
35 1 -15.9191 11.5843 10.9271
36 1 -16.3925 11.1548 11.5886
37 1 -16.8767 10.6604 12.2299
38 1 -17.5862 10.2401 12.6781
39 1 -18.2651 9.92701 13.2137
40 1 -19.1353 9.86418 13.6273
41 1 -20.0642 9.78272 13.8611
42 1 -20.9521 9.76262 14.1242
43 1 -21.8354 9.63681 14.5237
44 1 -22.6729 9.39392 14.9316
45 1 -23.5008 9.10067 15.1786
46 1 -24.3707 8.81536 15.3636
47 1 -25.1841 8.53982 15.7457
48 1 -26.0378 8.49575 16.1339
49 1 -26.869 8.80909 16.4748
50 1 -27.6327 9.30884 16.6754
51 1 -28.3743 9.73987 17.0172
52 1 -29.0418 10.0319 17.5594
53 1 -29.7785 10.4911 17.9337
54 1 -30.5615 10.9543 18.0913
55 1 -31.3161 11.4292 17.775
56 1 -32.0974 11.8021 17.499
57 1 -32.851 12.3455 17.1394
58 1 -33.6624 12.6905 16.7824
59 1 -34.5026 13.1011 16.6355
60 1 -35.4368 13.3968 16.5385
61 1 -36.2231 13.7918 16.2676
62 1 -37.0222 14.1502 15.9117
63 1 -37.6612 14.5738 15.3994
64 1 -38.4095 15.0909 15.1568
ITEM: TIMESTEP
1870000
ITEM: NUMBER OF ATOMS
64
ITEM: BOX BOUNDS mm mm mm
-3.4053422705600504e+01 3.2000000000000000e+01
-3.2000000000000000e+01 3.7072316889118028e+01
-3.2000000000000000e+01 3.2000000000000000e+01
ITEM: ATOMS id type x y z
1 1 -3.67115 37.2236 1.62452
2 1 -3.94207 36.2987 1.78128
3 1 -4.08864 35.3982 2.00897
4 1 -4.32405 34.5267 2.33466
5 1 -4.4152 33.5506 2.43875
6 1 -4.81505 32.7634 2.88828
7 1 -4.99854 32.0573 3.50131
8 1 -5.07809 31.3404 4.07647
9 1 -5.14821 30.6461 4.64418
10 1 -4.98624 29.9191 5.20638
11 1 -4.69518 29.202 5.7469
12 1 -4.59797 28.3393 6.02788
13 1 -4.34244 27.4193 6.28729
14 1 -4.39461 26.5085 6.44813
15 1 -4.69453 25.63 6.71363
16 1 -4.80955 24.7201 6.686
17 1 -5.1585 23.8273 6.52282
18 1 -5.37665 23.0235 6.05281
19 1 -5.67416 22.3096 5.60992
20 1 -6.13135 21.6077 5.17011
21 1 -6.64033 20.8896 4.82506
22 1 -7.152 20.0507 4.7805
23 1 -7.50794 19.1322 4.87547
24 1 -8.07423 18.4039 4.82652
25 1 -8.74092 17.7424 4.9156
26 1 -9.47062 17.16 4.97312
27 1 -10.0474 16.5514 5.24619
28 1 -10.7801 15.9635 5.62124
29 1 -11.3781 15.7328 6.35398
30 1 -11.9362 15.4593 7.03869
31 1 -12.3348 15.2664 7.91667
32 1 -12.7661 15.0798 8.74484
33 1 -13.1725 14.6317 9.41526
34 1 -13.4901 14.0081 10.0797
35 1 -13.7296 13.2851 10.6248
36 1 -14.2462 12.545 10.898
37 1 -14.6048 11.8224 11.3861
38 1 -15.1475 11.181 11.7914
39 1 -15.6044 10.3409 12.0069
40 1 -16.2159 9.80569 12.4586
41 1 -16.9116 9.24239 12.8525
42 1 -17.6234 8.6271 12.9923
43 1 -18.262 7.95527 13.2389
44 1 -18.937 7.31771 13.3422
45 1 -19.5008 6.63617 13.2035
46 1 -20.1694 5.99841 13.2258
47 1 -20.9663 5.55133 13.0783
48 1 -21.7642 5.07083 12.8522
49 1 -22.6154 4.7291 12.8763
50 1 -23.4027 4.17795 12.8625
51 1 -24.2486 3.85389 12.9225
52 1 -25.1634 4.01151 13.1292
53 1 -26.0519 4.13078 13.5462
54 1 -26.7902 4.30396 14.138
55 1 -27.5805 4.35089 14.7969
56 1 -28.2842 4.47455 15.3892
57 1 -29.0062 4.77055 15.8477
58 1 -29.6978 5.15514 16.3746
59 1 -30.4881 5.4891 16.8041
60 1 -31.2472 5.8806 17.1112
61 1 -31.9614 6.20559 17.6456
62 1 -32.7509 6.67619 18.1113
63 1 -33.6737 6.95703 18.317
64 1 -34.4592 7.2378 18.7218
ITEM: TIMESTEP
1880000
ITEM: NUMBER OF ATOMS
64
ITEM: BOX BOUNDS mm mm mm
-3.4611992909935203e+01 3.2000000000000000e+01
-3.2000000000000000e+01 4.0222287574440038e+01
-3.2000000000000000e+01 3.2000000000000000e+01
ITEM: ATOMS id type x y z
1 1 -4.32923 40.2331 3.40045
2 1 -4.45888 39.549 2.75598
3 1 -4.39981 38.6725 2.35701
4 1 -4.29725 37.7288 2.15624
5 1 -4.2656 36.8072 2.30278
6 1 -4.10691 35.9066 2.37474
7 1 -4.03841 34.984 2.44031
8 1 -3.86149 34.0501 2.21785
9 1 -4.0917 33.0957 2.09524
10 1 -4.55228 32.1926 2.08539
11 1 -4.98008 31.3377 2.07711
12 1 -5.5958 30.6427 2.20517
13 1 -6.11867 29.9045 2.50505
14 1 -6.5842 29.0665 2.71495
15 1 -7.09225 28.3311 2.97384
16 1 -7.72541 27.6659 3.22121
17 1 -8.42114 27.058 3.40071
18 1 -9.0119 26.3913 3.6321
19 1 -9.53869 25.5983 3.93435
20 1 -9.91665 24.7961 4.37492
21 1 -10.2565 24.2679 5.01492
22 1 -10.2375 23.6912 5.75721
23 1 -10.2929 22.9926 6.40924
24 1 -9.9816 22.2479 6.89103
25 1 -9.97814 21.2811 7.14527
26 1 -9.99935 20.3619 7.32703
27 1 -10.192 19.4532 7.51808
28 1 -10.3384 18.5576 7.59473
29 1 -10.6975 17.6703 7.54919
30 1 -10.9173 16.7997 7.64767
31 1 -11.2189 15.9097 7.58285
32 1 -11.5422 15.0728 7.76986
33 1 -11.8546 14.2019 7.87151
34 1 -12.2307 13.3398 8.13082
35 1 -12.6634 12.4831 8.31512
36 1 -13.1345 11.6901 8.6813
37 1 -13.8095 11.1006 8.97131
38 1 -14.6638 10.6433 9.22824
39 1 -15.5306 10.3014 9.48905
40 1 -16.4071 9.93674 9.65833
41 1 -17.2044 9.53332 10.0067
42 1 -17.6979 9.04629 10.6256
43 1 -18.4122 8.77271 11.1413
44 1 -19.1693 8.64135 11.7142
45 1 -19.9121 8.32885 12.2497
46 1 -20.73 8.13962 12.6214
47 1 -21.406 8.07734 13.2958
48 1 -22.0978 7.87226 13.8711
49 1 -22.7413 7.6133 14.491
50 1 -23.2674 7.32247 15.1793
51 1 -23.9586 7.09415 15.7207
52 1 -24.7825 6.83796 16.0878
53 1 -25.6877 6.77221 16.2871
54 1 -26.5642 6.4235 16.3228
55 1 -27.4282 6.26958 16.2764
56 1 -28.1786 5.69158 16.2976
57 1 -29.0646 5.31397 16.2779
58 1 -29.8471 4.88033 16.2086
59 1 -30.7235 4.51646 16.1144
60 1 -31.5506 4.19251 15.8606
61 1 -32.4635 3.97097 15.5341
62 1 -33.2096 3.86642 14.9685
63 1 -33.8855 3.53245 14.4283
64 1 -34.4693 3.54067 13.6758
ITEM: TIMESTEP
1890000
ITEM: NUMBER OF ATOMS
64
ITEM: BOX BOUNDS mm mm mm
-3.7424496729799898e+01 3.2000000000000000e+01
-3.2000000000000000e+01 3.8481199982771152e+01
-3.2000000000000000e+01 3.2000000000000000e+01
ITEM: ATOMS id type x y z
1 1 -0.461212 38.3364 5.63339
2 1 -0.531968 37.4568 5.21684
3 1 -0.550824 36.6015 4.88546
4 1 -0.583217 35.6475 4.6685
5 1 -0.517797 34.7326 4.49565
6 1 -0.724553 33.8195 4.59234
7 1 -0.93538 32.9019 4.64828
8 1 -1.31637 32.0143 4.64156
9 1 -1.68606 31.1756 4.58582
10 1 -2.13799 30.3428 4.62694
11 1 -2.58221 29.5093 4.74825
12 1 -3.00788 28.7142 4.82054
13 1 -3.6367 28.0203 4.6571
14 1 -4.0773 27.2199 4.57102
15 1 -4.37455 26.2853 4.55573
16 1 -5.00803 25.594 4.49331
17 1 -5.6392 24.9401 4.30352
18 1 -6.25033 24.2662 4.32937
19 1 -6.82951 23.4896 4.39619
20 1 -7.18143 22.5825 4.46041
21 1 -7.35162 21.7241 4.79606
22 1 -7.68197 20.8811 5.12025
23 1 -8.0242 20.093 5.39527
24 1 -8.51076 19.3959 5.77376
25 1 -9.22499 18.8382 6.0235
26 1 -9.81269 18.2453 6.41029
27 1 -10.3634 17.8568 6.98411
28 1 -11.1301 17.5069 7.47252
29 1 -11.8947 17.1283 7.91802
30 1 -12.7982 17.0111 8.31964
31 1 -13.6454 16.9561 8.64589
32 1 -14.4519 16.6865 9.03531
33 1 -15.3692 16.5387 9.21275
34 1 -16.1084 16.1808 9.61767
35 1 -16.6658 15.5958 10.0877
36 1 -17.0329 14.9302 10.7296
37 1 -17.6098 14.2485 11.0114
38 1 -17.9813 13.3733 11.1719
39 1 -18.2204 12.486 11.3273
40 1 -18.517 11.6227 11.3981
41 1 -18.9753 10.8114 11.4192
42 1 -19.7013 10.2602 11.6539
43 1 -20.4225 9.79191 12.0836
44 1 -21.2356 9.44273 12.3039
45 1 -21.9794 8.90013 12.3612
46 1 -22.8028 8.49252 12.4635
47 1 -23.5604 8.04725 12.7664
48 1 -24.5 7.90466 13.0854
49 1 -25.315 7.50039 13.2762
50 1 -26.2109 7.15089 13.113
51 1 -27.134 7.12686 12.8426
52 1 -27.9741 6.84852 12.5149
53 1 -28.6498 6.29952 12.1318
54 1 -29.426 5.75613 11.8594
55 1 -30.0837 5.1283 11.6081
56 1 -30.6445 4.49525 11.2056
57 1 -31.343 3.96641 10.937
58 1 -32.0391 3.32208 10.7441
59 1 -32.8629 2.87622 10.694
60 1 -33.7521 2.59599 10.6245
61 1 -34.6471 2.23401 10.4466
62 1 -35.4619 1.92876 10.1964
63 1 -36.3585 1.57426 9.9409
64 1 -37.135 1.22098 9.53483
ITEM: TIMESTEP
1900000
ITEM: NUMBER OF ATOMS
64
ITEM: BOX BOUNDS mm mm mm
-3.8010846931756497e+01 3.2000000000000000e+01
-3.2000000000000000e+01 3.3391247955310014e+01
-3.2000000000000000e+01 3.2000000000000000e+01
ITEM: ATOMS id type x y z
1 1 2.23941 33.8001 7.01096
2 1 1.50101 33.1297 7.14708
3 1 0.77071 32.7089 7.4756
4 1 0.054694 32.4453 8.01989
5 1 -0.639714 32.0992 8.4572
6 1 -1.44066 31.6744 8.5813
7 1 -2.19981 31.0577 8.70036
8 1 -3.11034 30.6467 8.8033
9 1 -3.85026 30.1104 9.03738
10 1 -4.56376 29.585 9.35483
11 1 -5.1606 28.8943 9.5128
12 1 -6.00066 28.4094 9.64662
13 1 -6.6209 27.7373 9.58298
14 1 -6.98902 26.8998 9.44429
15 1 -7.3972 26.0776 9.25277
16 1 -7.76668 25.2495 9.07615
17 1 -7.90721 24.3118 9.10311
18 1 -8.25577 23.4578 9.05991
19 1 -8.68537 22.6608 8.95784
20 1 -9.14876 21.9933 8.52835
21 1 -9.75787 21.531 7.90242
22 1 -10.1596 20.7216 7.6101
23 1 -10.7518 20.01 7.49562
24 1 -11.2863 19.2207 7.43508
25 1 -11.9086 18.5189 7.40902
26 1 -12.5437 17.8092 7.37985
27 1 -13.3366 17.3586 7.41744
28 1 -14.0752 16.7712 7.47911
29 1 -14.8952 16.3179 7.5769
30 1 -15.7316 15.8186 7.51391
31 1 -16.4686 15.2658 7.68306
32 1 -17.1481 14.6285 8.01564
33 1 -17.5469 13.8459 8.34831
34 1 -17.8993 13.0271 8.67883
35 1 -18.1467 12.2138 9.14107
36 1 -18.2534 11.5531 9.77673
37 1 -18.3365 10.8134 10.3572
38 1 -18.6193 10.0272 10.8752
39 1 -18.9536 9.20626 11.0908
40 1 -19.4557 8.41253 11.2986
41 1 -19.7361 7.57394 11.2116
42 1 -20.1844 6.72752 11.3258
43 1 -20.7157 6.02122 11.3336
44 1 -21.321 5.28662 11.6195
45 1 -21.885 4.57748 11.7545
46 1 -22.6669 3.94717 11.9154
47 1 -23.5058 3.46856 11.9367
48 1 -24.3825 3.13478 12.0096
49 1 -25.328 3.31285 12.0414
50 1 -26.1871 3.56917 11.9333
51 1 -27.131 3.76019 12.0399
52 1 -27.9168 4.12672 12.3318
53 1 -28.6513 4.51714 12.6577
54 1 -29.4458 4.99613 12.4568
55 1 -30.3361 5.40474 12.5601
56 1 -31.1487 5.73893 12.8094
57 1 -31.8783 6.18224 13.2802
58 1 -32.71 6.63722 13.5195
59 1 -33.4571 7.09445 13.9181
60 1 -34.2259 7.4434 14.3081
61 1 -35.1055 7.68828 14.3363
62 1 -35.8298 8.24501 14.563
63 1 -36.6191 8.70987 14.799
64 1 -37.3542 9.20578 15.0043
ITEM: TIMESTEP
1910000
ITEM: NUMBER OF ATOMS
64
ITEM: BOX BOUNDS mm mm mm
-3.5723718590513549e+01 3.2000000000000000e+01
-3.2000000000000000e+01 3.3125908518831409e+01
-3.2000000000000000e+01 3.2000000000000000e+01
ITEM: ATOMS id type x y z
1 1 2.79387 33.1175 11.6297
2 1 2.20923 32.7451 11.0315
3 1 1.64531 32.4247 10.3068
4 1 1.02203 32.0387 9.60481
5 1 0.467972 31.7689 8.9041
6 1 -0.149874 31.7006 8.22492
7 1 -0.923962 31.4396 7.71465
8 1 -1.57844 31.2634 7.07197
9 1 -2.4584 31.0625 6.61222
10 1 -3.33669 30.8542 6.33297
11 1 -4.07812 30.3818 6.01654
12 1 -4.8595 29.8623 5.819
13 1 -5.6916 29.4563 5.60349
14 1 -6.50734 29.0384 5.30673
15 1 -7.35466 28.7727 5.07625
16 1 -8.26281 28.4272 5.17504
17 1 -9.07798 28.2028 5.5852
18 1 -9.64565 27.7789 6.13395
19 1 -10.1959 27.2653 6.7442
20 1 -10.6749 26.593 7.2098
21 1 -11.1892 25.832 7.45796
22 1 -11.5172 24.9488 7.73111
23 1 -11.9979 24.2087 7.85479
24 1 -12.5131 23.4638 8.17358
25 1 -12.8635 22.6266 8.36724
26 1 -13.4464 21.9825 8.75922
27 1 -14.0886 21.319 8.9369
28 1 -14.6832 20.5314 8.94586
29 1 -15.1282 19.7449 8.65212
30 1 -15.5068 18.8803 8.57879
31 1 -15.6531 17.9887 8.52705
32 1 -15.8645 17.1716 9.01104
33 1 -15.8635 16.29 9.42685
34 1 -15.9574 15.3523 9.66427
35 1 -16.0737 14.4686 9.86512
36 1 -16.4266 13.598 9.90779
37 1 -16.8207 12.7172 9.92107
38 1 -17.3764 11.9308 10.0406
39 1 -17.8697 11.1266 10.0493
40 1 -18.3031 10.3305 10.206
41 1 -18.5889 9.41452 10.3182
42 1 -18.5942 8.52596 10.5331
43 1 -19.1885 7.74407 10.6208
44 1 -19.5997 6.91364 10.4423
45 1 -20.1897 6.20672 10.3511
46 1 -20.8084 5.4411 10.327
47 1 -21.5107 4.81242 10.2779
48 1 -22.2692 4.33175 10.4244
49 1 -23.0699 3.91553 10.7034
50 1 -23.987 3.81642 11.0451
51 1 -24.9204 3.69183 11.1867
52 1 -25.8578 3.69587 11.3831
53 1 -26.7161 3.60523 11.7041
54 1 -27.6471 3.63432 12.0517
55 1 -28.4047 3.77661 12.5331
56 1 -29.1545 3.93143 13.1056
57 1 -29.9902 4.04916 13.5096
58 1 -30.823 4.11279 13.9116
59 1 -31.6479 4.05979 14.3605
60 1 -32.4644 3.93407 14.8367
61 1 -33.3091 3.75193 15.1588
62 1 -34.2297 3.56487 15.1997
63 1 -35.1461 3.54854 15.4107
64 1 -35.9989 3.43875 15.7648
ITEM: TIMESTEP
1920000
ITEM: NUMBER OF ATOMS
64
ITEM: BOX BOUNDS mm mm mm
-3.7461318997207698e+01 3.2000000000000000e+01
-3.2000000000000000e+01 3.2000000000000000e+01
-3.2000000000000000e+01 3.2000000000000000e+01
ITEM: ATOMS id type x y z
1 1 -0.175712 32.2715 13.3974
2 1 -0.184914 32.002 12.495
3 1 -0.337978 31.6189 11.6516
4 1 -0.710311 31.3451 10.8002
5 1 -1.06121 31.1466 9.92001
6 1 -1.33331 30.7103 9.14328
7 1 -1.79741 30.1383 8.57692
8 1 -2.52446 29.658 8.04566
9 1 -3.22575 29.2008 7.58164
10 1 -3.80148 28.6726 7.06624
11 1 -4.3354 28.2217 6.35204
12 1 -5.02144 27.8607 5.89396
13 1 -5.82925 27.6819 5.45746
14 1 -6.7276 27.3925 5.38729
15 1 -7.6668 27.1607 5.38699
16 1 -8.58028 26.8489 5.45665
17 1 -9.34925 26.398 5.15734
18 1 -10.0928 26.1848 4.66787
19 1 -10.8164 25.9021 4.19526
20 1 -11.4701 25.4815 3.73015
21 1 -11.8259 24.9697 3.02171
22 1 -12.1389 24.2793 2.42312
23 1 -12.4788 23.4314 2.18033
24 1 -12.8899 22.5971 1.95145
25 1 -13.3033 21.7497 1.85267
26 1 -13.3979 20.8544 1.8423
27 1 -13.3544 19.8545 2.05214
28 1 -13.7399 19.0059 2.3669
29 1 -14.0939 18.3473 2.94191
30 1 -14.162 17.6575 3.64077
31 1 -14.2623 16.8078 4.12361
32 1 -14.2089 16.0807 4.69927
33 1 -14.0522 15.3172 5.35752
34 1 -14.1217 14.5714 5.95559
35 1 -14.6455 13.8557 6.35537
36 1 -15.1154 13.2435 7.07751
37 1 -15.626 12.6487 7.67544
38 1 -16.2849 12.2182 8.28903
39 1 -16.8981 11.702 8.71561
40 1 -17.5494 11.307 9.27347
41 1 -18.2416 10.8826 9.83896
42 1 -18.8925 10.5083 10.4351
43 1 -19.4605 10.0965 11.0797
44 1 -19.9935 9.66044 11.6906
45 1 -20.7121 9.21019 12.2246
46 1 -21.4605 8.80266 12.7216
47 1 -22.2927 8.5153 12.9741
48 1 -23.1473 8.30156 13.3719
49 1 -24.0024 8.21361 13.571
50 1 -24.863 8.37127 13.8833
51 1 -25.7528 8.54985 14.0663
52 1 -26.5842 8.86551 14.3765
53 1 -27.4165 8.73786 14.7059
54 1 -28.3678 8.60726 14.7978
55 1 -29.3413 8.58627 14.9781
56 1 -30.2612 8.45769 15.0341
57 1 -31.2005 8.3245 14.9314
58 1 -32.0361 8.13869 15.2964
59 1 -32.9814 8.21011 15.3248
60 1 -33.9194 8.16881 15.3422
61 1 -34.8387 8.33753 15.1766
62 1 -35.6044 8.7656 14.9726
63 1 -36.4718 8.9905 14.8187
64 1 -37.4515 9.03991 14.7416
ITEM: TIMESTEP
1930000
ITEM: NUMBER OF ATOMS
64
ITEM: BOX BOUNDS mm mm mm
-3.5047656644120075e+01 3.2000000000000000e+01
-3.2000000000000000e+01 3.3536721921418341e+01
-3.2000000000000000e+01 3.2000000000000000e+01
ITEM: ATOMS id type x y z
1 1 -6.37106 33.4603 12.4071
2 1 -5.62387 33.1912 11.8795
3 1 -5.05798 32.6593 11.3008
4 1 -4.54479 32.2222 10.6233
5 1 -4.5876 31.5183 9.93863
6 1 -4.24877 30.8774 9.29382
7 1 -3.9987 30.0477 8.96575
8 1 -4.22046 29.1695 8.75672
9 1 -4.56794 28.2781 8.47927
10 1 -5.06977 27.6065 8.16262
11 1 -5.68558 26.9991 7.75159
12 1 -6.33302 26.4542 7.28919
13 1 -7.07939 26.0663 6.88244
14 1 -7.94545 25.7331 6.9159
15 1 -8.86017 25.4391 6.85022
16 1 -9.63163 24.9575 6.70921
17 1 -10.3817 24.4637 6.5705
18 1 -11.073 23.8537 6.27053
19 1 -11.6582 23.1342 6.07213
20 1 -12.2142 22.3852 5.87723
21 1 -12.6139 21.6022 5.55773
22 1 -13.008 20.7542 5.45187
23 1 -13.3968 19.9342 5.16879
24 1 -13.8053 19.1192 4.91388
25 1 -14.2149 18.2338 4.66016
26 1 -14.7363 17.4132 4.58595
27 1 -15.2429 16.6119 4.51594
28 1 -15.6869 15.803 4.66426
29 1 -16.0433 14.9404 4.91911
30 1 -16.2009 14.1296 5.30385
31 1 -16.3927 13.4067 5.86537
32 1 -16.2166 12.7758 6.61754
33 1 -16.3565 12.136 7.24719
34 1 -16.8872 11.651 7.82801
35 1 -17.3131 11.199 8.58832
36 1 -17.6508 10.9788 9.45368
37 1 -17.948 10.8348 10.3157
38 1 -18.148 10.991 11.1812
39 1 -18.2407 11.1593 12.1523
40 1 -18.4017 11.2685 13.1066
41 1 -18.6425 11.3704 14.0108
42 1 -18.988 11.3637 14.8957
43 1 -19.3166 11.3226 15.8505
44 1 -19.6204 11.0964 16.6889
45 1 -19.9837 10.7608 17.5223
46 1 -20.641 10.3796 18.1033
47 1 -21.38 9.98167 18.4222
48 1 -22.3488 9.74681 18.5619
49 1 -23.255 9.53758 18.6282
50 1 -24.1405 9.14792 18.9245
51 1 -24.9525 8.66462 19.0658
52 1 -25.8014 8.21411 19.1384
53 1 -26.6167 7.78265 19.0598
54 1 -27.2542 7.07554 18.7899
55 1 -28.0359 6.55169 18.7091
56 1 -28.7168 5.92759 18.8139
57 1 -29.4591 5.401 19.0546
58 1 -30.1712 4.83371 18.9554
59 1 -31.0359 4.59732 18.7236
60 1 -31.9046 4.35428 18.4551
61 1 -32.6424 3.87635 18.2346
62 1 -33.4188 3.34645 17.8928
63 1 -34.3413 3.20097 17.6183
64 1 -35.1761 2.84936 17.3045
ITEM: TIMESTEP
1940000
ITEM: NUMBER OF ATOMS
64
ITEM: BOX BOUNDS mm mm mm
-3.6228227018876346e+01 3.2000000000000000e+01
-3.2000000000000000e+01 4.0476126361359483e+01
-3.2000000000000000e+01 3.2000000000000000e+01
ITEM: ATOMS id type x y z
1 1 -5.51159 40.457 12.3171
2 1 -5.95024 39.6843 12.553
3 1 -6.33201 38.8833 12.8112
4 1 -6.56046 37.9395 12.9672
5 1 -6.94403 37.0639 13.1517
6 1 -7.32788 36.2537 13.402
7 1 -7.71413 35.4006 13.4475
8 1 -8.02543 34.5173 13.5504
9 1 -8.20322 33.566 13.5547
10 1 -8.63938 32.7518 13.5919
11 1 -8.95628 31.9189 13.0622
12 1 -9.44637 31.3478 12.4205
13 1 -9.73726 30.7866 11.7085
14 1 -10.1808 30.3518 11.0722
15 1 -10.619 29.7046 10.6145
16 1 -11.4128 29.2526 10.3434
17 1 -12.171 28.6721 10.2154
18 1 -12.9856 28.1618 10.0289
19 1 -13.6849 27.5177 9.78523
20 1 -14.2744 26.8832 9.42511
21 1 -14.6489 26.1466 8.93276
22 1 -14.7886 25.3568 8.49289
23 1 -14.78 24.5346 8.01397
24 1 -14.9328 23.6785 7.64356
25 1 -15.0779 22.6885 7.59606
26 1 -15.1985 21.7078 7.77115
27 1 -15.4015 20.7854 7.97653
28 1 -15.6881 19.9097 8.05963
29 1 -16.0165 19.1857 8.55438
30 1 -16.15 18.4968 9.1375
31 1 -16.2818 17.7236 9.71823
32 1 -16.4664 16.9653 10.1413
33 1 -16.8442 16.1869 10.6273
34 1 -17.0238 15.3163 10.8758
35 1 -17.2225 14.4841 11.3233
36 1 -17.6187 13.7142 11.7029
37 1 -18.1012 13.2659 12.3546
38 1 -18.7581 13.0382 13.0947
39 1 -19.463 12.696 13.663
40 1 -20.1399 12.5596 14.2778
41 1 -20.8864 12.4219 14.8735
42 1 -21.676 12.1036 15.3315
43 1 -22.4695 11.7388 15.7666
44 1 -23.1838 11.4951 16.3376
45 1 -23.8575 11.0173 16.8149
46 1 -24.4966 10.4901 17.248
47 1 -25.0797 9.85093 17.5164
48 1 -25.6695 9.19937 17.9021
49 1 -26.0264 8.53686 18.4387
50 1 -26.4405 7.95673 19.0385
51 1 -27.0044 7.60974 19.6726
52 1 -27.6736 7.34522 20.3043
53 1 -28.4544 7.11633 20.764
54 1 -29.2114 6.90687 21.1981
55 1 -29.8535 6.54069 21.7689
56 1 -30.5532 6.15537 22.3136
57 1 -31.3676 5.77239 22.6742
58 1 -32.1375 5.46313 23.0912
59 1 -32.9766 5.32294 23.4873
60 1 -33.7646 5.32754 24.0082
61 1 -34.4076 5.30387 24.7361
62 1 -35.0588 5.04208 25.3275
63 1 -35.636 5.08761 26.0546
64 1 -36.3243 5.34976 26.6684
ITEM: TIMESTEP
1950000
ITEM: NUMBER OF ATOMS
64
ITEM: BOX BOUNDS mm mm mm
-3.4848260953773341e+01 3.2000000000000000e+01
-3.2000000000000000e+01 4.2869720956480222e+01
-3.2000000000000000e+01 3.2000000000000000e+01
ITEM: ATOMS id type x y z
1 1 -5.13734 42.8965 13.5844
2 1 -5.69936 42.1904 13.2969
3 1 -6.15989 41.3954 13.0476
4 1 -6.37228 40.516 12.8886
5 1 -6.623 39.6737 12.643
6 1 -6.8261 38.7826 12.4619
7 1 -7.16448 37.9179 12.3158
8 1 -7.69312 37.1909 12.258
9 1 -8.2019 36.3685 12.113
10 1 -8.68543 35.5634 12.001
11 1 -9.10372 34.7105 11.794
12 1 -9.31891 33.8204 11.4942
13 1 -9.66106 32.9193 11.1636
14 1 -10.1533 32.1423 11.0461
15 1 -10.8145 31.4763 10.85
16 1 -11.1713 30.6081 10.7948
17 1 -11.559 29.7849 11.029
18 1 -12.0015 29.0066 11.3084
19 1 -12.41 28.327 11.7333
20 1 -12.8005 27.507 11.9515
21 1 -13.1693 26.6699 12.0305
22 1 -13.5371 25.8158 12.1427
23 1 -13.9165 24.9421 12.3851
24 1 -14.2461 24.1317 12.631
25 1 -14.4483 23.2627 12.8696
26 1 -14.689 22.4084 12.9123
27 1 -15.1069 21.592 13.0573
28 1 -15.6595 20.7575 13.0794
29 1 -16.3809 20.2385 13.2217
30 1 -17.0835 19.6142 13.3608
31 1 -17.7756 18.9554 13.453
32 1 -18.3495 18.2461 13.6331
33 1 -18.8909 17.5356 13.9322
34 1 -19.2104 16.6943 14.0842
35 1 -19.6804 15.9703 14.397
36 1 -20.082 15.2248 14.7784
37 1 -20.3146 14.4586 15.2291
38 1 -20.4775 13.686 15.661
39 1 -20.5293 12.8534 16.1128
40 1 -20.4638 12.094 16.7248
41 1 -20.6483 11.1972 17.025
42 1 -20.7267 10.331 17.3904
43 1 -20.5951 9.387 17.5521
44 1 -20.77 8.58207 18.0886
45 1 -21.0652 7.83154 18.6082
46 1 -21.4563 7.14161 19.1381
47 1 -22.0925 6.69191 19.6908
48 1 -22.8212 6.31194 20.0916
49 1 -23.6606 6.04672 20.4259
50 1 -24.2728 5.64819 20.9612
51 1 -24.95 4.98671 21.1863
52 1 -25.5722 4.35677 21.3564
53 1 -26.1326 3.64361 21.2325
54 1 -26.8772 3.20352 20.8274
55 1 -27.7811 3.09796 20.6046
56 1 -28.7105 3.02778 20.4275
57 1 -29.6428 3.08063 20.3826
58 1 -30.5468 3.20888 20.431
59 1 -31.4747 3.48441 20.4115
60 1 -32.3189 3.84743 20.4702
61 1 -33.0832 4.32894 20.3095
62 1 -33.7323 5.02927 20.0784
63 1 -34.2997 5.77613 20.055
64 1 -34.7353 6.63283 20.1431
ITEM: TIMESTEP
1960000
ITEM: NUMBER OF ATOMS
64
ITEM: BOX BOUNDS mm mm mm
-3.3425136115369824e+01 3.2000000000000000e+01
-3.2000000000000000e+01 4.5089379810630959e+01
-3.2000000000000000e+01 3.2000000000000000e+01
ITEM: ATOMS id type x y z
1 1 -4.4051 45.3274 7.62041
2 1 -4.77676 44.4475 7.83652
3 1 -5.13899 43.5687 7.9121
4 1 -5.39828 42.6587 8.06092
5 1 -5.85285 41.8506 8.00321
6 1 -6.34719 41.0784 8.20904
7 1 -6.75312 40.2865 8.59199
8 1 -7.26927 39.5821 8.96071
9 1 -7.74444 38.8311 9.1814
10 1 -8.3355 38.1197 9.41994
11 1 -9.1538 37.6609 9.73286
12 1 -9.78592 37.1362 10.2159
13 1 -10.3436 36.5881 10.7028
14 1 -10.9165 35.9966 11.2264
15 1 -11.5654 35.3668 11.6678
16 1 -12.1319 34.7579 12.1819
17 1 -12.6731 34.1252 12.6855
18 1 -13.0476 33.5158 13.2289
19 1 -13.6427 33.0113 13.7103
20 1 -14.2533 32.4772 14.1168
21 1 -14.7465 31.7526 14.4894
22 1 -15.1822 30.965 14.7747
23 1 -15.4315 30.0789 14.9767
24 1 -15.9027 29.264 15.1241
25 1 -16.356 28.4632 15.4451
26 1 -16.7251 27.5868 15.6716
27 1 -17.2147 26.8385 15.7689
28 1 -17.6354 25.9266 15.9138
29 1 -17.9509 25.1945 16.3266
30 1 -18.3797 24.4554 16.7421
31 1 -18.6688 23.8122 17.3594
32 1 -18.8569 23.0063 17.8343
33 1 -19.1502 22.1519 17.9629
34 1 -19.5026 21.3292 18.1943
35 1 -19.7302 20.3879 18.415
36 1 -19.9824 19.53 18.5161
37 1 -20.351 18.6961 18.7661
38 1 -20.7015 17.8868 18.9187
39 1 -21.3042 17.0901 18.8101
40 1 -22.105 16.4942 18.9527
41 1 -22.7837 15.7537 19.067
42 1 -23.1442 14.9416 19.237
43 1 -23.6086 14.2108 19.5465
44 1 -23.9933 13.4719 19.9812
45 1 -24.3211 12.7255 20.4998
46 1 -24.49 11.9143 21.0336
47 1 -24.6078 11.187 21.599
48 1 -24.9111 10.483 22.1404
49 1 -25.2782 9.66893 22.439
50 1 -25.4825 8.85263 22.8145
51 1 -25.591 8.08623 23.3065
52 1 -25.7673 7.48887 23.9868
53 1 -26.1689 6.74356 24.5956
54 1 -26.5873 6.1055 25.1452
55 1 -26.8551 5.54753 25.7774
56 1 -27.3929 5.06724 26.4011
57 1 -28.1314 4.53296 26.8171
58 1 -28.7402 4.15084 27.3547
59 1 -29.5368 3.64394 27.6249
60 1 -30.37 3.19612 27.7462
61 1 -31.0447 2.61468 27.9716
62 1 -31.8693 2.12272 28.0336
63 1 -32.7498 1.74822 27.9861
64 1 -33.6429 1.63625 27.8224
ITEM: TIMESTEP
1970000
ITEM: NUMBER OF ATOMS
64
ITEM: BOX BOUNDS mm mm mm
-3.5694902649527847e+01 3.2000000000000000e+01
-3.2000000000000000e+01 4.4705337492225588e+01
-3.2000000000000000e+01 3.2000000000000000e+01
ITEM: ATOMS id type x y z
1 1 -5.67951 44.5446 17.8542
2 1 -5.75574 43.8277 17.2155
3 1 -5.75175 43.0298 16.6812
4 1 -5.7484 42.2312 16.1632
5 1 -5.88097 41.4673 15.5789
6 1 -6.25198 40.8 15.021
7 1 -6.80277 40.1105 14.7927
8 1 -7.57682 39.5556 14.6955
9 1 -8.31243 38.9974 14.5668
10 1 -8.92075 38.3465 14.7535
11 1 -9.65346 37.7529 14.9816
12 1 -10.2559 37.0733 15.2486
13 1 -10.7919 36.3137 15.5236
14 1 -11.1823 35.4885 15.5846
15 1 -11.8399 34.7701 15.6224
16 1 -12.5819 34.1087 15.5337
17 1 -13.1598 33.4156 15.4841
18 1 -13.848 32.8171 15.7217
19 1 -14.6108 32.227 15.8832
20 1 -15.3826 31.7062 15.9996
21 1 -15.9795 31.0186 16.0446
22 1 -16.5661 30.2859 16.1877
23 1 -17.1116 29.5487 16.2817
24 1 -17.5596 28.7515 16.5719
25 1 -17.9104 27.9324 16.8735
26 1 -17.9546 27.1444 17.3961
27 1 -18.1554 26.3782 17.968
28 1 -18.3069 25.5112 18.3506
29 1 -18.2073 24.6575 18.7439
30 1 -18.2325 23.7799 18.9559
31 1 -18.3677 22.9634 19.4104
32 1 -18.6254 22.2644 19.9618
33 1 -18.8936 21.5601 20.5746
34 1 -19.1331 20.9418 21.2253
35 1 -19.2996 20.055 21.5346
36 1 -19.6153 19.2089 21.8952
37 1 -19.875 18.3133 22.2249
38 1 -19.8931 17.4298 22.6218
39 1 -19.9294 16.5127 22.9126
40 1 -20.0728 15.8186 23.5027
41 1 -20.3623 15.0677 24.0843
42 1 -20.8527 14.3621 24.5358
43 1 -21.4307 13.7862 24.9891
44 1 -21.9889 13.1268 25.3247
45 1 -22.5609 12.3365 25.41
46 1 -23.1153 11.5133 25.3236
47 1 -23.7254 10.822 25.0934
48 1 -24.4569 10.3672 24.8152
49 1 -25.2234 10.0068 24.4626
50 1 -25.8963 9.42514 24.1101
51 1 -26.493 9.02722 23.463
52 1 -27.0026 8.7272 22.746
53 1 -27.5503 8.26424 22.1029
54 1 -28.3388 8.00389 21.6685
55 1 -29.1015 7.57934 21.3164
56 1 -29.8468 7.15902 20.9786
57 1 -30.6454 6.82585 20.5704
58 1 -31.2623 6.23998 20.162
59 1 -31.9769 5.60093 19.949
60 1 -32.7577 5.13482 19.7201
61 1 -33.5756 4.7615 19.3621
62 1 -34.3525 4.23206 19.173
63 1 -35.0805 3.69933 18.9035
64 1 -35.8934 3.21527 18.7227
ITEM: TIMESTEP
1980000
ITEM: NUMBER OF ATOMS
64
ITEM: BOX BOUNDS mm mm mm
-3.7071026479154810e+01 3.2000000000000000e+01
-3.2000000000000000e+01 4.3153024541296716e+01
-3.2000000000000000e+01 3.2000000000000000e+01
ITEM: ATOMS id type x y z
1 1 -10.2612 43.1137 28.3775
2 1 -10.5281 42.4362 27.7056
3 1 -11.1808 42.1371 27.1
4 1 -11.6194 41.5822 26.4844
5 1 -11.976 40.9977 25.8518
6 1 -12.1808 40.3853 25.0945
7 1 -12.4253 39.8917 24.3202
8 1 -12.3447 39.5426 23.4379
9 1 -12.221 38.9408 22.6816
10 1 -12.3512 38.3082 21.9712
11 1 -12.6627 37.7246 21.3033
12 1 -13.076 37.2381 20.6357
13 1 -13.4837 36.4532 20.2482
14 1 -13.9305 35.7564 19.8299
15 1 -14.0938 34.9434 19.3671
16 1 -14.1215 34.0653 19.1445
17 1 -14.2532 33.1563 18.8366
18 1 -14.4778 32.2646 18.8196
19 1 -14.7068 31.3414 18.7527
20 1 -14.5264 30.4418 18.5995
21 1 -14.5647 29.4319 18.5097
22 1 -14.4073 28.4926 18.5675
23 1 -14.3914 27.5432 18.8157
24 1 -14.8015 26.7595 19.0943
25 1 -15.0413 25.9386 19.427
26 1 -15.1861 25.0015 19.6074
27 1 -15.5491 24.1716 19.5477
28 1 -16.1338 23.4411 19.3538
29 1 -16.5954 22.648 19.2179
30 1 -17.0684 21.8477 19.1913
31 1 -17.4474 20.9985 19.273
32 1 -17.9229 20.1511 19.2386
33 1 -18.5034 19.466 19.4829
34 1 -18.8866 18.7492 19.9499
35 1 -19.3112 18.0746 20.3672
36 1 -19.7027 17.3253 20.8322
37 1 -20.1094 16.7162 21.4094
38 1 -20.5383 16.3747 22.2199
39 1 -21.0826 16.0959 22.9221
40 1 -21.6202 15.9427 23.6862
41 1 -22.2803 15.7147 24.3099
42 1 -23.0301 15.4728 24.7988
43 1 -23.8628 15.3315 25.1549
44 1 -24.7274 15.2659 25.4323
45 1 -25.609 15.0601 25.7337
46 1 -26.4525 14.8167 26.0913
47 1 -27.4019 14.7151 26.135
48 1 -28.2795 14.5078 26.3838
49 1 -29.0634 13.9956 26.5006
50 1 -29.7115 13.3334 26.678
51 1 -30.2659 12.5982 26.9749
52 1 -30.9542 11.9341 26.8844
53 1 -31.5814 11.1776 26.8146
54 1 -32.1639 10.492 26.532
55 1 -32.8645 9.85951 26.4369
56 1 -33.3362 9.04981 26.2151
57 1 -33.6034 8.27286 25.7558
58 1 -34.0461 7.49246 25.4371
59 1 -34.4589 6.77194 24.9512
60 1 -34.9871 6.18081 24.4808
61 1 -35.6769 5.55799 24.5254
62 1 -36.2126 4.75617 24.5482
63 1 -36.4514 3.92378 24.2525
64 1 -36.4732 3.04806 23.8506
ITEM: TIMESTEP
1990000
ITEM: NUMBER OF ATOMS
64
ITEM: BOX BOUNDS mm mm mm
-3.9885097495502869e+01 3.2000000000000000e+01