print ">>>>>>>>>>>>>>>>>>>>>>>>>>>>>>>>>>>>>>>>>>>>>>>>>>>>>>>>>>>>>>>>>>>>>>>>>>>>>>>N: 64 K: 0.5"
>>>>>>>>>>>>>>>>>>>>>>>>>>>>>>>>>>>>>>>>>>>>>>>>>>>>>>>>>>>>>>>>>>>>>>>>>>>>>>>N: 64 K: 0.5
read_restart restart._N64_k0.5.dat
Reading restart file ...
  restart file = 23 Jun 2022, LAMMPS = 23 Jun 2022
  restoring atom style angle from restart
  orthogonal box = (-32 -32 -32) to (32 32 32)
  1 by 2 by 2 MPI processor grid
  restoring pair style lj/cut from restart
  restoring bond style fene from restart
  restoring angle style cosine from restart
  64 atoms
  63 bonds
  62 angles
Finding 1-2 1-3 1-4 neighbors ...
  special bond factors lj:    0        1        1       
  special bond factors coul:  0        1        1       
     2 = max # of 1-2 neighbors
     6 = max # of special neighbors
  special bonds CPU = 0.000 seconds
  read_restart CPU = 0.001 seconds
# sets up computes needed for continuing a run from a restart file

# dumps and fixes, dumps are already handled in the python file



###

# Set up fixes - as these are not stored in the restart files

###

variable seed equal 315987     # a seed for the thermostat

fix 1 all nve                             # NVE integrator

fix 2 all langevin   1.0 1.0 1.0 ${seed}  # langevin thermostat

fix 2 all langevin   1.0 1.0 1.0 315987  


##### Calculate thermodynamics to write ###################################

variable t equal step

variable mytemp equal temp

variable myepair equal epair

############################################################################



############################################################################

#### Set up a compute for R_g

compute myRG2compute all gyration

#### and write it to a file

variable RG2 equal c_myRG2compute

############################################################################



##### Output thermodynamic info  (temperature, energy, pressure, etc.) #####

thermo 10000

thermo_style   custom   step  temp  epair  emol pe ke etotal  press  vol

############################################################################



###

# modify neighborlist behaviour since this too is not recorded

###

neighbor 1.9 bin

neigh_modify every 1 delay 1 check yes

fix mythermofile all print 10000 "$t ${mytemp} ${myepair}" file thermo_output_N64_k0.5.dat screen no
fix myRG2file all print 10000 "$t ${RG2}" file radius_of_gyration_squared_N64_k0.5.dat screen no
dump dum2 all custom 10000 dump_N64_k0.5.dynamics id type x y z
dump_modify dum2  sort id
run 500000
Generated 0 of 0 mixed pair_coeff terms from geometric mixing rule
Neighbor list info ...
  update every 1 steps, delay 1 steps, check yes
  max neighbors/atom: 2000, page size: 100000
  master list distance cutoff = 3.0224615
  ghost atom cutoff = 3.55
  binsize = 1.5112308, bins = 43 43 43
  1 neighbor lists, perpetual/occasional/extra = 1 0 0
  (1) pair lj/cut, perpetual
      attributes: half, newton on
      pair build: half/bin/newton
      stencil: half/bin/3d
      bin: standard
Per MPI rank memory allocation (min/avg/max) = 6.479 | 6.578 | 6.876 Mbytes
   Step          Temp          E_pair         E_mol          PotEng         KinEng         TotEng         Press          Volume    
   1440000   1.033781       2.4062395e-05  31.184298      31.184322      1.5264422      32.710764     -0.00032006371  262144       
   1450000   1.1821241      0.021568588    30.96083       30.982398      1.7454801      32.727879     -0.00016506802  262144       
   1460000   1.2422105      0.0030916192   31.321178      31.32427       1.8342014      33.158471     -0.00063467017  262144       
   1470000   0.99445516     0              31.038788      31.038788      1.4683752      32.507163     -4.2802541e-05  262144       
   1480000   0.94179618     0.031009571    30.829878      30.860888      1.3906209      32.251509      4.1768787e-05  262144       
   1490000   1.0227234      0.031110426    31.16321       31.19432       1.5101151      32.704435     -0.00038873576  262144       
   1500000   1.0058044      0.012541653    31.180447      31.192989      1.485133       32.678122      0.0006628865   262144       
   1510000   0.92650688     0.0071038859   31.055021      31.062125      1.3680453      32.43017       0.00032176688  262144       
   1520000   0.92160223     0.037341682    30.977793      31.015135      1.3608033      32.375938     -0.00018358466  262144       
   1530000   1.0260696      0.018945806    30.920472      30.939418      1.515056       32.454474      0.00036673675  262144       
   1540000   1.0160394      0.036626995    31.097136      31.133763      1.5002457      32.634008      5.3146824e-05  262144       
   1550000   1.123829       0.00031207806  31.134933      31.135245      1.6594038      32.794649     -0.00037531642  262144       
   1560000   1.0201291      0.012303681    31.066632      31.078936      1.5062843      32.58522       6.2731416e-06  262144       
   1570000   1.0045194      0.056102417    31.200695      31.256797      1.4832357      32.740033     -0.00036417658  262144       
   1580000   1.1139577      0.00026767793  31.138301      31.138569      1.6448282      32.783397      1.0641264e-06  262144       
   1590000   0.94139004     0.0025722046   31.139328      31.1419        1.3900212      32.531921      6.4266387e-05  262144       
   1600000   0.92752492     0.011377638    31.114195      31.125572      1.3695485      32.495121     -0.00053166642  262144       
   1610000   1.1704479      0.051759983    31.175114      31.226874      1.7282395      32.955114     -0.00020240666  262144       
   1620000   0.87556249     0.084110061    31.060577      31.144687      1.2928227      32.43751       0.00067271969  262144       
   1630000   1.1554358      0.015168798    30.98336       30.998529      1.7060731      32.704602      1.528696e-05   263684.88    
   1640000   1.0096244      0.039818415    31.022048      31.061866      1.4907735      32.55264      -0.00033507493  262144       
   1650000   1.0919954      0.0056168708   31.163977      31.169593      1.6123995      32.781993      0.00064442592  262144       
   1660000   1.0122652      0.0044193003   31.056612      31.061031      1.4946728      32.555704     -0.00021217529  262144       
   1670000   1.0279755      0.027908221    31.233547      31.261455      1.51787        32.779325      0.00062059669  262144       
   1680000   0.99251143     0.035672212    31.108259      31.143931      1.4655052      32.609437      0.00040626726  262144       
   1690000   1.1311498      0.014929434    31.215269      31.230199      1.6702133      32.900412     -0.00051222446  262144       
   1700000   1.2912663      0.016397099    31.133931      31.150328      1.9066354      33.056963      0.00046318081  262144       
   1710000   1.0368525      0.024519408    31.019488      31.044008      1.5309775      32.574985      7.1606613e-05  262144       
   1720000   1.0282977      0.055978278    31.002192      31.05817       1.5183458      32.576516     -6.140027e-05   262144       
   1730000   1.0264194      0.025313116    31.045275      31.070588      1.5155724      32.58616       0.00044214958  262144       
   1740000   1.0191233      0.022470277    31.233055      31.255525      1.5047993      32.760324      0.00044270824  262144       
   1750000   0.89057524     0.0042044686   31.041896      31.0461        1.31499        32.36109      -0.00016431526  262144       
   1760000   0.93126335     0.013266714    30.869771      30.883038      1.3750685      32.258106      0.00014747361  273872.26    
   1770000   0.90766354     0.021196664    30.812562      30.833758      1.3402219      32.17398       0.00040527118  291792.65    
   1780000   1.0453644      0.014503181    31.051903      31.066406      1.5435458      32.609952      6.873844e-05   285817.96    
   1790000   0.88930516     0.011103354    31.111635      31.122738      1.3131146      32.435853      6.8273492e-05  291088.86    
   1800000   1.0272884      0.039504489    30.968545      31.00805       1.5168556      32.524905     -0.00032697166  281990.2     
   1810000   0.97375806     0.01975819     31.013431      31.033189      1.4378146      32.471004     -0.0003757332   269466       
   1820000   1.1365646      0.020081155    31.21375       31.233831      1.6782086      32.912039     -0.00018994629  269952.51    
   1830000   1.0065363      0.0086483197   30.979968      30.988616      1.4862137      32.47483      -0.00086674002  262144       
   1840000   0.96891301     0.0022432935   31.13847       31.140714      1.4306606      32.571374      0.00012784737  274196.4     
   1850000   0.99264816     0.00065950541  31.123238      31.123898      1.465707       32.589605      0.00066472698  262144       
   1860000   0.99873087     0.011050289    30.908399      30.919449      1.4746886      32.394137      0.00035661144  286604.6     
   1870000   1.0793027      0.0026995212   31.034279      31.036979      1.5936579      32.630637     -0.00020413016  276907.02    
   1880000   1.0820034      0.03073743     30.942387      30.973125      1.5976457      32.57077      -5.8343613e-05  271413.74    
   1890000   1.1980758      0.0030018719   30.949889      30.952891      1.7690338      32.721924      0.0003309923   272860.36    
   1900000   0.94499676     0.01423651     30.917248      30.931484      1.3953468      32.326831      0.00021180449  277053.28    
   1910000   1.0455935      0.0045317799   31.110078      31.11461       1.5438841      32.658494      0.0002703613   276363.56    
   1920000   1.0986638      0.037678858    31.183396      31.221074      1.6222458      32.84332      -0.00044756114  294809.8     
   1930000   1.0390642      0.0067097153   31.048572      31.055281      1.5342432      32.589525     -2.4492913e-05  303537.31    
   1940000   0.97433064     0.014787985    30.965658      30.980446      1.4386601      32.419107      0.00018776637  296609.82    
Loop time of 7.53791 on 4 procs for 500000 steps with 64 atoms

Performance: 57310293.572 tau/day, 66331.358 timesteps/s
100.0% CPU use with 4 MPI tasks x 1 OpenMP threads

MPI task timing breakdown:
Section |  min time  |  avg time  |  max time  |%varavg| %total
---------------------------------------------------------------
Pair    | 0.028552   | 0.20068    | 0.70783    |  65.4 |  2.66
Bond    | 0.031523   | 0.47469    | 1.7997     | 111.0 |  6.30
Neigh   | 0.96852    | 0.97313    | 0.97574    |   0.3 | 12.91
Comm    | 0.23607    | 0.25142    | 0.27043    |   2.7 |  3.34
Output  | 0.010582   | 0.010689   | 0.010789   |   0.1 |  0.14
Modify  | 0.093901   | 0.61037    | 2.1488     | 113.7 |  8.10
Other   |            | 5.017      |            |       | 66.56

Nlocal:             16 ave          64 max           0 min
Histogram: 3 0 0 0 0 0 0 0 0 1
Nghost:              0 ave           0 max           0 min
Histogram: 4 0 0 0 0 0 0 0 0 0
Neighs:             65 ave         260 max           0 min
Histogram: 3 0 0 0 0 0 0 0 0 1

Total # of neighbors = 260
Ave neighs/atom = 4.0625
Ave special neighs/atom = 1.96875
Neighbor list builds = 12848
Dangerous builds = 0
write_restart 	restart._N64_k0.5.dat
System init for write_restart ...
Generated 0 of 0 mixed pair_coeff terms from geometric mixing rule
Total wall time: 0:00:07
