print ">>>>>>>>>>>>>>>>>>>>>>>>>>>>>>>>>>>>>>>>>>>>>>>>>>>>>>>>>>>>>>>>>>>>>>>>>>>>>>>N: 64 K: 0.5"
>>>>>>>>>>>>>>>>>>>>>>>>>>>>>>>>>>>>>>>>>>>>>>>>>>>>>>>>>>>>>>>>>>>>>>>>>>>>>>>N: 64 K: 0.5
read_restart restart._N64_k0.5.dat
Reading restart file ...
  restart file = 23 Jun 2022, LAMMPS = 23 Jun 2022
  restoring atom style angle from restart
  orthogonal box = (-32 -32 -32) to (32 37.996945 32)
  2 by 2 by 1 MPI processor grid
  restoring pair style lj/cut from restart
  restoring bond style fene from restart
  restoring angle style cosine from restart
  64 atoms
  63 bonds
  62 angles
Finding 1-2 1-3 1-4 neighbors ...
  special bond factors lj:    0        1        1       
  special bond factors coul:  0        1        1       
     2 = max # of 1-2 neighbors
     6 = max # of special neighbors
  special bonds CPU = 0.000 seconds
  read_restart CPU = 0.001 seconds
# sets up computes needed for continuing a run from a restart file

# dumps and fixes, dumps are already handled in the python file



###

# Set up fixes - as these are not stored in the restart files

###

variable seed equal 315987     # a seed for the thermostat

fix 1 all nve                             # NVE integrator

fix 2 all langevin   1.0 1.0 1.0 ${seed}  # langevin thermostat

fix 2 all langevin   1.0 1.0 1.0 315987  


##### Calculate thermodynamics to write ###################################

variable t equal step

variable mytemp equal temp

variable myepair equal epair

############################################################################



############################################################################

#### Set up a compute for R_g

compute myRG2compute all gyration

#### and write it to a file

variable RG2 equal c_myRG2compute

############################################################################



##### Output thermodynamic info  (temperature, energy, pressure, etc.) #####

thermo 10000

thermo_style   custom   step  temp  epair  emol pe ke etotal  press  vol

############################################################################

fix mythermofile all print 10000 "$t ${mytemp} ${myepair}" file thermo_output_N64_k0.5.dat screen no
fix myRG2file all print 10000 "$t ${RG2}" file radius_of_gyration_squared_N64_k0.5.dat screen no
dump dum2 all custom 10000 dump_N64_k0.5.dynamics id type x y z
dump_modify dum2  sort id
run 500000
Generated 0 of 0 mixed pair_coeff terms from geometric mixing rule
Neighbor list info ...
  update every 1 steps, delay 10 steps, check yes
  max neighbors/atom: 2000, page size: 100000
  master list distance cutoff = 1.4224615
  ghost atom cutoff = 3.55
  binsize = 0.71123076, bins = 90 99 90
  1 neighbor lists, perpetual/occasional/extra = 1 0 0
  (1) pair lj/cut, perpetual
      attributes: half, newton on
      pair build: half/bin/newton
      stencil: half/bin/3d
      bin: standard
Per MPI rank memory allocation (min/avg/max) = 7.658 | 7.757 | 8.055 Mbytes
   Step          Temp          E_pair         E_mol          PotEng         KinEng         TotEng         Press          Volume    
    940000   1.0337353      0.035309654    31.220261      31.25557       1.5263748      32.781945      3.061064e-05   286709.94    
    950000   0.97271435     0.015461851    31.000795      31.016257      1.4362735      32.452531      0.00046701902  299907.06    
    960000   1.0300233      0.041715359    31.061541      31.103257      1.5208938      32.624151      9.1387009e-05  289395.96    
    970000   1.024202       0.02480866     31.013153      31.037962      1.5122982      32.55026      -8.0347561e-05  284525.01    
    980000   1.0392784      0.023411656    30.978648      31.00206       1.5345595      32.536619     -0.00018514286  307639.98    
    990000   1.0276058      0.0055016646   30.942607      30.948109      1.5173241      32.465433      7.6902891e-05  310335.05    
   1000000   1.1870099      0.0039613925   31.092518      31.096479      1.7526944      32.849174     -0.00058903245  310990.01    
   1010000   1.0439979      0.038677757    30.946565      30.985243      1.5415281      32.526771      0.0002250271   301594.4     
   1020000   0.87676762     0.020508406    31.029679      31.050188      1.2946022      32.34479       5.6072085e-05  284818.54    
   1030000   0.97169921     0.00080616301  30.979853      30.980659      1.4347746      32.415434      0.00061767504  279640.06    
   1040000   0.92231036     0.026584977    30.943883      30.970468      1.3618489      32.332317     -0.00026868407  279997.33    
   1050000   0.95150337     0              31.189758      31.189758      1.4049542      32.594712     -0.0005777869   262688.34    
   1060000   1.0547693      0.0037903932   31.028071      31.031861      1.5574328      32.589294      0.0004105702   264957.31    
   1070000   1.1903869      0.03090988     31.024448      31.055358      1.7576806      32.813039      5.3403721e-05  275551.97    
   1080000   1.0800887      0.018164859    31.013885      31.03205       1.5948185      32.626868      5.6374333e-05  277501.35    
   1090000   0.9594121      0.0076889363   31.196579      31.204268      1.4166319      32.6209       -0.00062510074  280202.73    
   1100000   1.156013       0.025884393    31.086583      31.112467      1.7069254      32.819392      0.00018262673  270393.17    
   1110000   1.0411617      0.018639312    31.077033      31.095672      1.5373403      32.633013     -0.00048351147  270921.79    
   1120000   0.94426788     0.00053661658  31.086005      31.086541      1.3942705      32.480812     -0.00035412782  268748.34    
   1130000   1.0458165      0.054035225    30.9765        31.030536      1.5442134      32.574749     -0.00021637979  272811.81    
   1140000   0.98556605     0.014512816    30.938918      30.953431      1.4552499      32.408681     -0.00082268801  285997.46    
   1150000   1.1066966      0.02681705     31.105606      31.132423      1.6341066      32.76653       0.00057737357  267025.11    
   1160000   1.1334172      0.0028329899   30.963056      30.965889      1.6735613      32.63945      -0.00035728736  273428.18    
   1170000   0.88762625     0.034204785    31.149831      31.184036      1.3106356      32.494672     -0.00036568104  262246.13    
   1180000   0.97097773     0.012463605    30.964677      30.97714       1.4337093      32.41085       2.2047208e-05  278462.42    
   1190000   1.2653932      0.020870338    31.050443      31.071314      1.8684322      32.939746      5.3565211e-05  303176       
   1200000   1.1217142      0.0080014124   30.957328      30.965329      1.6562811      32.62161       0.00019763995  285200.45    
   1210000   1.0026558      0.00029424228  31.155473      31.155768      1.480484       32.636252     -0.00010852111  296993.48    
   1220000   1.0412945      0.013690921    31.187566      31.201257      1.5375364      32.738793      0.00020102445  292837.25    
   1230000   1.0113314      0.012131034    31.128265      31.140396      1.493294       32.63369      -0.00021025969  301000.56    
   1240000   1.0612472      0              31.284796      31.284796      1.5669978      32.851794     -0.00034899188  307894.39    
   1250000   0.93814604     0.0083420131   31.171732      31.180074      1.3852313      32.565305      2.3941144e-05  286403.21    
   1260000   0.94830782     0.0020084709   30.972743      30.974751      1.4002358      32.374987     -0.00030705908  277751.08    
   1270000   0.90021757     0.022817731    31.066306      31.089123      1.3292275      32.418351      0.00026747833  283894.52    
   1280000   0.92053868     0.020506123    30.906573      30.927079      1.3592329      32.286312      0.00019836985  274233.65    
   1290000   0.85649394     0.020335965    31.171722      31.192058      1.2646668      32.456725      0.00043084865  279415.62    
   1300000   1.1176412      0.0023421437   31.080435      31.082777      1.650267       32.733044     -0.00028184107  280716.99    
   1310000   0.99437781     0.00032225288  31.002457      31.002779      1.468261       32.47104      -0.0003097535   262916.3     
   1320000   0.95919911     0.019239442    31.070126      31.089365      1.4163174      32.505683     -0.00022257593  264765.53    
   1330000   0.87252368     0.021571612    30.946311      30.967882      1.2883357      32.256218      0.00010341905  262686.14    
   1340000   0.97386305     0.024313471    31.139014      31.163328      1.4379697      32.601298      0.000169682    272410.5     
   1350000   1.139592       0.025835617    30.936815      30.96265       1.6826788      32.645329      0.00041386455  262144       
   1360000   1.0018008      0.013974981    31.252468      31.266443      1.4792215      32.745664      0.00035675596  262648.19    
   1370000   1.1313685      4.7069943e-06  31.030714      31.030718      1.6705362      32.701255     -5.621458e-05   266093.17    
   1380000   0.92483323     0.010850827    31.013149      31.024         1.3655741      32.389574     -0.00071351575  262144       
   1390000   1.0938156      0.019488369    30.968818      30.988307      1.615087       32.603394      0.00084531549  262144       
   1400000   0.97034299     0.023658599    30.931821      30.955479      1.4327721      32.388251      0.00058450951  262144       
   1410000   1.0604532      0.0034022756   31.122768      31.12617       1.5658255      32.691996      0.00055731903  262144       
   1420000   0.99402563     0.0038355997   31.077515      31.081351      1.467741       32.549092     -0.00040816391  262144       
   1430000   1.1039272      0.041761297    30.978458      31.020219      1.6300175      32.650236     -0.00015526722  262144       
   1440000   1.033781       2.4062395e-05  31.184298      31.184322      1.5264422      32.710764     -0.00032006371  262144       
Loop time of 22.3686 on 4 procs for 500000 steps with 64 atoms

Performance: 19312814.713 tau/day, 22352.795 timesteps/s
100.0% CPU use with 4 MPI tasks x 1 OpenMP threads

MPI task timing breakdown:
Section |  min time  |  avg time  |  max time  |%varavg| %total
---------------------------------------------------------------
Pair    | 0.026737   | 0.09958    | 0.31553    |  39.5 |  0.45
Bond    | 0.033111   | 0.49218    | 1.8642     | 112.9 |  2.20
Neigh   | 16.355     | 16.371     | 16.381     |   0.3 | 73.19
Comm    | 0.79101    | 1.0245     | 1.5755     |  31.9 |  4.58
Output  | 0.011292   | 0.01415    | 0.015165   |   1.4 |  0.06
Modify  | 0.097031   | 0.65082    | 2.2987     | 117.9 |  2.91
Other   |            | 3.716      |            |       | 16.61

Nlocal:             16 ave          64 max           0 min
Histogram: 3 0 0 0 0 0 0 0 0 1
Nghost:           1.25 ave           5 max           0 min
Histogram: 3 0 0 0 0 0 0 0 0 1
Neighs:           6.75 ave          27 max           0 min
Histogram: 3 0 0 0 0 0 0 0 0 1

Total # of neighbors = 27
Ave neighs/atom = 0.421875
Ave special neighs/atom = 1.96875
Neighbor list builds = 50000
Dangerous builds = 50000
write_restart 	restart._N64_k0.5.dat
System init for write_restart ...
Generated 0 of 0 mixed pair_coeff terms from geometric mixing rule
Total wall time: 0:00:22
