print ">>>>>>>>>>>>>>>>>>>>>>>>>>>>>>>>>>>>>>>>>>>>>>>>>>>>>>>>>>>>>>>>>>>>>>>>>>>>>>>N: 64 K: 0.5"
>>>>>>>>>>>>>>>>>>>>>>>>>>>>>>>>>>>>>>>>>>>>>>>>>>>>>>>>>>>>>>>>>>>>>>>>>>>>>>>N: 64 K: 0.5
read_restart restart._N64_k0.5.dat
Reading restart file ...
  restart file = 23 Jun 2022, LAMMPS = 23 Jun 2022
  restoring atom style angle from restart
  orthogonal box = (-32 -32 -32) to (32 40.407576 32)
  1 by 2 by 2 MPI processor grid
  restoring pair style lj/cut from restart
  restoring bond style fene from restart
  restoring angle style cosine from restart
  64 atoms
  63 bonds
  62 angles
Finding 1-2 1-3 1-4 neighbors ...
  special bond factors lj:    0        1        1       
  special bond factors coul:  0        1        1       
     2 = max # of 1-2 neighbors
     6 = max # of special neighbors
  special bonds CPU = 0.000 seconds
  read_restart CPU = 0.001 seconds
# sets up computes needed for continuing a run from a restart file

# dumps and fixes, dumps are already handled in the python file



###

# Set up fixes - as these are not stored in the restart files

###

variable seed equal 315987     # a seed for the thermostat

fix 1 all nve                             # NVE integrator

fix 2 all langevin   1.0 1.0 1.0 ${seed}  # langevin thermostat

fix 2 all langevin   1.0 1.0 1.0 315987  


##### Calculate thermodynamics to write ###################################

variable t equal step

variable mytemp equal temp

variable myepair equal epair

############################################################################



############################################################################

#### Set up a compute for R_g

compute myRG2compute all gyration

#### and write it to a file

variable RG2 equal c_myRG2compute

############################################################################



##### Output thermodynamic info  (temperature, energy, pressure, etc.) #####

thermo 10000

thermo_style   custom   step  temp  epair  emol pe ke etotal  press  vol

############################################################################



###

# modify neighborlist behaviour since this too is not recorded

###

neighbor 1.9 bin

neigh_modify every 1 delay 1 check yes

fix mythermofile all print 10000 "$t ${mytemp} ${myepair}" file thermo_output_N64_k0.5.dat screen no
fix myRG2file all print 10000 "$t ${RG2}" file radius_of_gyration_squared_N64_k0.5.dat screen no
dump dum2 all custom 10000 dump_N64_k0.5.dynamics id type x y z
dump_modify dum2  sort id
run 1500000
Generated 0 of 0 mixed pair_coeff terms from geometric mixing rule
Neighbor list info ...
  update every 1 steps, delay 1 steps, check yes
  max neighbors/atom: 2000, page size: 100000
  master list distance cutoff = 3.0224615
  ghost atom cutoff = 3.55
  binsize = 1.5112308, bins = 43 48 43
  1 neighbor lists, perpetual/occasional/extra = 1 0 0
  (1) pair lj/cut, perpetual
      attributes: half, newton on
      pair build: half/bin/newton
      stencil: half/bin/3d
      bin: standard
Per MPI rank memory allocation (min/avg/max) = 6.49 | 6.589 | 6.887 Mbytes
   Step          Temp          E_pair         E_mol          PotEng         KinEng         TotEng         Press          Volume    
   1940000   0.97433064     0.014787985    30.965658      30.980446      1.4386601      32.419107      0.00018778216  296584.88    
   1950000   1.1693914      0              31.034783      31.034783      1.7266796      32.761463      0.00024995452  287623.99    
   1960000   1.2060657      0.026234286    31.114445      31.14068       1.7808314      32.921511     -0.00040978343  294140.36    
   1970000   0.79903145     0.009197921    30.995864      31.005062      1.1798199      32.184882      0.00012343622  298019.44    
   1980000   0.94956523     0.0054430647   31.028648      31.034091      1.4020924      32.436184      0.00038583439  313996.04    
   1990000   1.0371717      0.018670953    31.071473      31.090144      1.5314489      32.621593      0.00022732327  304482.89    
   2000000   1.1354263      0.010953155    31.020305      31.031258      1.6765279      32.707786     -1.2950189e-05  316142.08    
   2010000   0.95830705     0.088412448    31.072605      31.161017      1.4150003      32.576017     -6.5035018e-05  314068.51    
   2020000   0.97142727     0.020936362    31.02082       31.041757      1.4343731      32.47613       0.00027967166  317255.94    
   2030000   1.103673       0.0031533606   30.830693      30.833847      1.6296422      32.463489     -0.00028282875  305722.89    
   2040000   1.08654        0.015200714    30.998413      31.013614      1.6043442      32.617958      0.00026036375  304956.07    
   2050000   0.99269194     0.0024368684   31.196266      31.198703      1.4657717      32.664475     -0.00017276577  303224.96    
   2060000   0.80015145     0.015958655    31.182254      31.198213      1.1814736      32.379687      3.634599e-05   302920.19    
   2070000   0.88867904     0              31.077641      31.077641      1.3121901      32.389831     -0.00054830888  307462.16    
   2080000   1.2123476      0.037165602    30.963668      31.000834      1.7901069      32.79094      -9.1060261e-05  319896.54    
   2090000   0.97631077     0.071824321    31.153359      31.225184      1.4415839      32.666767     -0.00050893697  305573.29    
   2100000   0.94211204     0.026596616    31.056899      31.083496      1.3910873      32.474583      0.00029222895  310797.61    
   2110000   0.99361395     0.031247472    31.195852      31.2271        1.4671331      32.694233     -3.2210082e-05  321776.31    
   2120000   1.0881178      0.0018337454   30.887695      30.889528      1.606674       32.496202     -7.6426105e-05  325929.22    
   2130000   1.1266542      0.012982084    31.14845       31.161432      1.6635753      32.825008     -0.00018821997  331726.62    
   2140000   0.90036844     0.00019108019  31.176278      31.176469      1.3294503      32.505919      0.00020611138  319303.19    
   2150000   0.97734696     0.0023184414   31.107895      31.110213      1.4431139      32.553327      0.00061278415  318448.83    
   2160000   0.91427424     0.0018853549   31.081659      31.083544      1.3499831      32.433527      0.00034362121  322322.11    
   2170000   1.0904568      0.0070588727   31.077133      31.084192      1.6101277      32.694319      0.00019005598  332242.51    
   2180000   1.0555789      0.0034235727   31.069456      31.07288       1.5586283      32.631508      0.00040909452  346348.93    
   2190000   1.0821555      0.025879767    31.128285      31.154165      1.5978702      32.752035     -0.00022896358  330012.04    
   2200000   1.1497532      0.05023305     31.075089      31.125322      1.6976824      32.823005     -0.00023861109  337004.98    
   2210000   0.96062612     0.0043868596   30.95962       30.964007      1.4184245      32.382431     -0.00032065038  338600.49    
   2220000   1.0933274      0.0095305843   31.035557      31.045088      1.6143662      32.659454      7.7278623e-05  341609.34    
   2230000   1.136263       0.025952405    31.084089      31.110041      1.6777633      32.787805      0.00067849339  339898.08    
   2240000   0.97348173     0.012123998    30.910042      30.922166      1.4374066      32.359573      6.885224e-05   344249.92    
   2250000   0.94730311     0.0046421143   31.187226      31.191868      1.3987522      32.590621     -0.00034815314  346215.04    
   2260000   1.0706983      0.040974903    30.827728      30.868703      1.580953       32.449656     -3.3849486e-05  360124.55    
   2270000   1.0623097      0.00017414737  30.931835      30.932009      1.5685667      32.500576     -0.00033637608  379053.84    
   2280000   0.95934942     0.01958971     30.961793      30.981383      1.4165394      32.397922     -0.00025014173  360565.5     
   2290000   0.92468341     0.024787404    31.182072      31.206859      1.3653528      32.572212     -0.00025665113  360018.13    
   2300000   1.075616       3.6507295e-05  31.026852      31.026888      1.5882143      32.615102      7.1918381e-05  342792.3     
   2310000   0.88339682     0.012812326    31.07452       31.087332      1.3043906      32.391723      0.00019360486  332415.86    
   2320000   1.1120345      0.020896577    30.896352      30.917249      1.6419885      32.559237     -5.0922188e-05  340476.91    
   2330000   1.2363156      0.0056418958   30.898399      30.904041      1.8254972      32.729538     -7.5701331e-05  328297.34    
   2340000   0.8245361      0.0045224798   30.986832      30.991355      1.2174791      32.208834      9.4320013e-05  352918.73    
   2350000   1.2244929      0.022457068    31.076026      31.098483      1.8080404      32.906523     -0.00052149937  344862.94    
   2360000   0.96883431     0.027145286    30.892964      30.920109      1.4305444      32.350654      1.0845459e-05  337905.6     
   2370000   1.0071762      0.046225613    31.496602      31.542828      1.4871586      33.029986     -0.00057937582  346843.4     
   2380000   1.0083053      0.043286637    30.993348      31.036635      1.4888259      32.525461      0.00027164641  340433.11    
   2390000   1.0301905      0.013526478    31.001993      31.015519      1.5211406      32.53666       0.00025921639  358020.69    
   2400000   0.96104258     0.016834425    31.208056      31.224891      1.4190394      32.64393      -3.5963933e-05  344483.96    
   2410000   0.90369506     0.00058840254  31.089991      31.09058       1.3343622      32.424942     -0.00030678431  344885.83    
   2420000   1.0710986      0.038831109    31.298644      31.337475      1.5815441      32.919019     -7.8681079e-05  369184.68    
   2430000   1.0263597      0.032835037    31.029263      31.062098      1.5154842      32.577582     -0.00013523621  384341.88    
   2440000   1.0574697      0.063660065    31.134218      31.197878      1.5614201      32.759298     -0.00028499515  362716.7     
   2450000   1.0608091      0.00040274804  30.914115      30.914518      1.566351       32.480869      0.00010142056  361608.8     
   2460000   0.93765054     0.0017253296   31.126365      31.128091      1.3844996      32.51259      -0.00030336424  359737.57    
   2470000   1.0882958      0.0061508726   31.123474      31.129625      1.6069368      32.736562     -0.0002074674   363838.49    
   2480000   0.94321662     0.023788472    30.895683      30.919472      1.3927183      32.31219       1.5561376e-05  363528.31    
   2490000   0.87543248     0.014360551    31.004312      31.018672      1.2926308      32.311303     -1.8278262e-05  338477.15    
   2500000   0.90208643     0.045641101    31.223959      31.2696        1.331987       32.601587      0.00028762863  350366.29    
   2510000   0.95847911     0              30.869039      30.869039      1.4152543      32.284293      7.3736138e-05  330194.71    
   2520000   1.0477745      0.011451094    30.952398      30.963849      1.5471045      32.510953      4.1317628e-05  333120.33    
   2530000   0.91698479     0              31.046232      31.046232      1.3539854      32.400217     -6.2545559e-05  333401.04    
   2540000   1.0970008      0.002415036    31.250318      31.252733      1.6197903      32.872523     -0.00038399452  329735.88    
   2550000   0.8879833      0.0018822011   31.085115      31.086997      1.3111628      32.39816       0.00010871224  336593.15    
   2560000   0.96545879     0.047413072    31.113136      31.160549      1.4255602      32.586109      0.00035576536  324906.35    
   2570000   1.1887081      0.018175825    31.109495      31.127671      1.7552018      32.882872     -2.5084253e-05  350106.32    
   2580000   1.0304345      0.11727014     30.984359      31.101629      1.521501       32.62313       6.3259449e-05  332555.46    
   2590000   1.0217974      0.011667147    30.912779      30.924446      1.5087477      32.433194      3.6906853e-06  334660.4     
   2600000   1.1035792      0.016092572    31.259714      31.275807      1.6295037      32.905311      0.00014375202  332663.64    
   2610000   0.95080323     0.026109064    31.020771      31.04688       1.4039204      32.4508       -0.00028497894  322301.31    
   2620000   0.8835743      0.015736029    31.048616      31.064352      1.3046527      32.369005      1.1292588e-05  319752.61    
   2630000   1.0696733      0.017425563    30.842228      30.859654      1.5794395      32.439093      0.00032153165  323426.98    
   2640000   0.96603862     0.0012973167   31.06498       31.066277      1.4264164      32.492693     -0.00031382468  349949.17    
   2650000   0.98782999     0.033275513    31.086011      31.119286      1.4585927      32.577879      0.00014666357  357738.94    
   2660000   1.0491325      0.045935368    31.076796      31.122731      1.5491098      32.671841      0.00042099811  337939.67    
   2670000   1.1052397      0.016807687    31.09258       31.109388      1.6319555      32.741343     -0.00012461733  352341.95    
   2680000   0.9831106      0.04638757     31.032213      31.078601      1.4516242      32.530225      1.2584723e-05  342605.67    
   2690000   1.0736531      0.028069046    31.098153      31.126222      1.5853159      32.711538     -1.7511248e-05  345940.24    
   2700000   0.89708365     0.037161907    31.207904      31.245066      1.3246001      32.569666     -0.00049451068  358687.01    
   2710000   1.0448098      0.046899018    30.984344      31.031243      1.542727       32.57397      -0.00021487427  357225.02    
   2720000   1.0257202      0.0038999379   31.126718      31.130618      1.51454        32.645158      0.00037717091  368704.29    
   2730000   1.0275089      0.028833528    30.938015      30.966848      1.5171812      32.484029      0.00040239454  361563.34    
   2740000   1.0276534      0.028825843    31.123316      31.152141      1.5173944      32.669536      0.00022954889  370381.72    
   2750000   1.1039898      0.029557351    30.920893      30.95045       1.63011        32.58056       6.3889961e-05  350343.3     
   2760000   0.9427662      0.0079959119   30.967377      30.975373      1.3920532      32.367426      0.00025297092  341679.16    
   2770000   0.94634671     0              30.949324      30.949324      1.3973401      32.346664     -2.247553e-05   325644.93    
   2780000   0.92208522     0.010533786    31.102787      31.113321      1.3615165      32.474837      0.00044752345  329961.88    
   2790000   1.0539189      0.0031177717   31.232641      31.235758      1.5561772      32.791936     -0.00036526182  322049.79    
   2800000   0.99574823     0.00047354308  30.989556      30.99003       1.4702845      32.460314     -2.2243353e-05  324141.51    
   2810000   1.0268385      0.0014270546   31.179881      31.181308      1.5161913      32.697499     -0.00023215981  322561.84    
   2820000   0.92647063     0.022349391    31.00427       31.026619      1.3679918      32.394611      0.00037413729  311332.38    
   2830000   0.8275386      0.012845403    30.93124       30.944086      1.2219125      32.165998     -0.00037491295  327177.39    
   2840000   0.91279895     0.011700736    31.041825      31.053526      1.3478047      32.40133      -3.0290394e-05  330890.72    
   2850000   0.91931015     0.02529952     31.047355      31.072654      1.3574189      32.430073     -0.00017745693  331778.82    
   2860000   1.0117726      0.10390237     31.059113      31.163016      1.4939455      32.656961      7.9441498e-05  338593.07    
   2870000   1.0094212      0.00044069533  31.076718      31.077159      1.4904735      32.567632     -0.00028730969  325917.56    
   2880000   0.82939112     0.052187791    31.005232      31.05742       1.2246478      32.282067      9.104978e-06   320151.49    
   2890000   1.1145095      0.025098306    31.050834      31.075932      1.645643       32.721575      0.00033475876  327324.35    
   2900000   1.3424853      0.00018030183  30.970188      30.970368      1.9822635      32.952632     -0.00028330265  344185.22    
   2910000   1.1750303      0.0030511434   31.046639      31.04969       1.7350057      32.784696      0.00015481575  356626.4     
   2920000   0.9644338      0              31.187403      31.187403      1.4240468      32.61145       0.00011557585  357598.44    
   2930000   1.0098209      0.00013546401  30.843628      30.843764      1.4910637      32.334828      5.3077621e-05  344657.62    
   2940000   1.0655046      0.02207058     31.351712      31.373782      1.5732841      32.947066     -0.00029160099  366244.6     
   2950000   0.83867364     7.4875152e-07  31.127291      31.127292      1.238354       32.365646     -0.00041655302  349341.19    
   2960000   1.0447033      0.011808829    31.040363      31.052172      1.5425697      32.594742     -0.00054827395  373454.63    
   2970000   1.0077422      0.0097238592   31.009005      31.018728      1.4879943      32.506723     -2.19327e-05    370823.97    
   2980000   0.98056379     0.0011368688   30.905078      30.906215      1.4478637      32.354079     -1.1874554e-05  354931.22    
   2990000   1.0339599      0.031025168    31.002861      31.033886      1.5267064      32.560593      0.00024675407  350373.14    
   3000000   1.131049       0.011248943    31.017904      31.029153      1.6700645      32.699217     -0.00012956808  365417.76    
   3010000   1.1016226      0.032444253    31.09237       31.124814      1.6266146      32.751429     -0.00029434085  369847.53    
   3020000   1.0215865      0.00035242154  31.132126      31.132478      1.5084364      32.640915      0.00033191164  362222.27    
   3030000   0.97358071     0.01020539     31.197493      31.207698      1.4375528      32.645251      0.00028532399  374933.79    
   3040000   1.0568297      0.010701128    30.876982      30.887683      1.5604751      32.448158     -0.00020000949  368188.61    
   3050000   1.0621129      0.0036564187   31.110402      31.114059      1.5682761      32.682335      0.00031048339  363206.26    
   3060000   0.95305055     0.033824741    31.182899      31.216724      1.4072387      32.623962     -0.00015276024  380150.9     
   3070000   0.84985197     0.0045624406   30.867351      30.871913      1.2548595      32.126773      7.2426668e-05  387558.78    
   3080000   1.1110529      0.02263664     31.217399      31.240035      1.6405391      32.880574     -0.0004933956   390916.76    
   3090000   1.0937923      0              31.011266      31.011266      1.6150526      32.626319      0.00017335841  384054.26    
   3100000   1.0402179      0.021747762    31.191368      31.213116      1.5359468      32.749063      0.00028157021  393123.04    
   3110000   0.92059876     0.032504942    31.134997      31.167502      1.3593216      32.526824      0.00019524966  414968.21    
   3120000   0.9199216      0.010369503    31.027743      31.038113      1.3583217      32.396434      0.00016787314  394120.24    
   3130000   1.1312056      0.0022638101   30.867019      30.869283      1.6702957      32.539578      0.00036828293  400745.94    
   3140000   1.0037062      0.027591682    31.189762      31.217354      1.4820349      32.699389      0.0003011196   388459.32    
   3150000   1.103459       0.013410071    31.140085      31.153495      1.6293262      32.782821     -5.4818784e-05  393229.86    
   3160000   0.98015882     0.0085602364   31.159836      31.168396      1.4472658      32.615662     -0.00053639119  392028.69    
   3170000   1.0032226      0.01020749     31.065204      31.075412      1.4813209      32.556733      0.00038490209  392006.19    
   3180000   0.93187315     0.0085059709   31.119873      31.128379      1.375969       32.504348      0.00010430969  397671.57    
   3190000   0.85650806     0.035989441    31.173765      31.209754      1.2646877      32.474442      0.00053614656  388156.75    
   3200000   1.0049958      0.0027120124   30.910326      30.913038      1.4839391      32.396977      4.0384399e-05  397068.65    
   3210000   0.83008873     0.025607747    31.109207      31.134815      1.2256779      32.360493     -0.00031330555  394901.14    
   3220000   1.0935151      0.038536652    31.047502      31.086039      1.6146434      32.700682     -1.2558672e-05  407769.42    
   3230000   1.0687957      0.018635471    30.966763      30.985399      1.5781437      32.563542     -0.00032468587  407607.69    
   3240000   0.89879591     0.0063382362   30.938305      30.944643      1.3271283      32.271771      0.00027430345  420635.05    
   3250000   1.0014093      0.033020208    31.033415      31.066435      1.4786434      32.545078     -8.6546629e-05  424273.07    
   3260000   0.96972437     0.0051870837   31.06149       31.066677      1.4318586      32.498536     -9.955156e-05   408944.47    
   3270000   0.86541623     0.0057911743   31.028307      31.034098      1.2778411      32.311939      0.00022002023  410013.43    
   3280000   0.87288322     0.032094492    30.998808      31.030903      1.2888666      32.319769     -0.00012520983  409250.78    
   3290000   0.96166492     0.00069192557  30.962194      30.962886      1.4199584      32.382844     -0.00023110147  409994.97    
   3300000   1.060898       0.0011894554   31.058925      31.060115      1.5664823      32.626597      0.00029368442  425341.43    
   3310000   0.85620775     0.032106264    31.101577      31.133683      1.2642443      32.397928     -0.0001523014   405356.94    
   3320000   1.0288723      0.00034742364  30.971246      30.971594      1.5191943      32.490788      0.00016177127  403065.09    
   3330000   0.95552245     0.05151141     31.154501      31.206012      1.4108886      32.616901      5.9099873e-05  405310.64    
   3340000   1.1271598      7.8915677e-05  30.951364      30.951442      1.6643219      32.615764     -0.00010099628  385525.73    
   3350000   0.98753281     0.0060681445   30.875156      30.881224      1.4581539      32.339378      4.7200622e-05  384337.53    
   3360000   0.96432317     0.012121174    30.960389      30.97251       1.4238834      32.396394     -0.00017506272  376886.35    
   3370000   0.93983671     0.010732667    30.91634       30.927072      1.3877276      32.3148       -0.00011565629  378111.41    
   3380000   1.051824       0.001719701    31.174209      31.175928      1.5530838      32.729012     -0.00052083903  363138.62    
   3390000   1.0328609      0.0031191785   31.047193      31.050312      1.5250837      32.575396      1.2149712e-05  372931.52    
   3400000   0.97385705     0.057671714    30.951493      31.009165      1.4379608      32.447126      3.3371348e-05  371750.12    
   3410000   1.1380566      0.0025896316   31.005945      31.008535      1.6804117      32.688946     -4.6250862e-05  355417.49    
   3420000   1.0732274      0.012561063    31.08186       31.094421      1.5846873      32.679109     -0.00030449949  367715.79    
   3430000   0.80806657     7.7189002e-05  31.049793      31.049871      1.1931608      32.243031      0.00025715482  349424.31    
   3440000   1.0651561      0.0043273935   30.984769      30.989097      1.5727696      32.561866      4.9677726e-06  339134.5     
Loop time of 24.1215 on 4 procs for 1500000 steps with 64 atoms

Performance: 53728030.922 tau/day, 62185.221 timesteps/s
100.0% CPU use with 4 MPI tasks x 1 OpenMP threads

MPI task timing breakdown:
Section |  min time  |  avg time  |  max time  |%varavg| %total
---------------------------------------------------------------
Pair    | 0.086108   | 0.65123    | 1.5781     |  76.1 |  2.70
Bond    | 0.10708    | 1.4658     | 3.8443     | 127.0 |  6.08
Neigh   | 3.192      | 3.2248     | 3.2489     |   1.4 | 13.37
Comm    | 0.7855     | 2.3698     | 4.1871     | 102.9 |  9.82
Output  | 0.023794   | 0.025191   | 0.025692   |   0.5 |  0.10
Modify  | 0.32318    | 1.9131     | 4.7017     | 130.2 |  7.93
Other   |            | 14.47      |            |       | 59.99

Nlocal:             16 ave          64 max           0 min
Histogram: 3 0 0 0 0 0 0 0 0 1
Nghost:           1.25 ave           5 max           0 min
Histogram: 3 0 0 0 0 0 0 0 0 1
Neighs:             78 ave         312 max           0 min
Histogram: 3 0 0 0 0 0 0 0 0 1

Total # of neighbors = 312
Ave neighs/atom = 4.875
Ave special neighs/atom = 1.96875
Neighbor list builds = 38556
Dangerous builds = 0
write_restart 	restart._N64_k0.5.dat
System init for write_restart ...
Generated 0 of 0 mixed pair_coeff terms from geometric mixing rule
Total wall time: 0:00:24
