ITEM: TIMESTEP
2340000
ITEM: NUMBER OF ATOMS
256
ITEM: BOX BOUNDS mm mm mm
-1.2800000000000000e+02 1.2800000000000000e+02
-1.2800000000000000e+02 1.2800000000000000e+02
-1.2800000000000000e+02 1.2800000000000000e+02
ITEM: ATOMS id type x y z
1 1 -1.11344 9.44377 -3.00254
2 1 -1.91023 9.2469 -3.40596
3 1 -2.55672 8.8319 -3.96622
4 1 -3.17201 8.39791 -4.53313
5 1 -3.64109 7.89835 -5.17249
6 1 -4.26469 7.51051 -5.78366
7 1 -4.82891 7.02718 -6.32515
8 1 -5.63231 6.64719 -6.61927
9 1 -6.28403 6.03127 -6.24304
10 1 -7.01788 5.44009 -5.93081
11 1 -7.58014 4.93703 -5.41283
12 1 -7.94236 4.58625 -4.59862
13 1 -8.51577 4.41622 -3.85138
14 1 -9.22449 4.01956 -3.35613
15 1 -9.7693 3.63911 -2.65497
16 1 -10.3424 3.60114 -1.83345
17 1 -10.7666 3.77761 -0.971398
18 1 -11.1537 3.79459 -0.100787
19 1 -11.6536 3.53813 0.6166
20 1 -12.0762 3.13028 1.35676
21 1 -12.3216 2.7654 2.13875
22 1 -12.1706 2.35778 2.99188
23 1 -12.1519 1.5745 3.53048
24 1 -11.9571 0.844552 4.15798
25 1 -11.8708 0.144742 4.77697
26 1 -12.0907 -0.426855 5.5368
27 1 -12.4716 -0.680671 6.36906
28 1 -12.3305 -0.561198 7.28166
29 1 -11.8345 -0.691898 8.03286
30 1 -11.4496 -0.608184 8.91299
31 1 -11.0475 -0.57433 9.84348
32 1 -10.5268 -0.232482 10.5259
33 1 -9.78887 0.169283 10.8817
34 1 -9.15963 0.64886 11.3238
35 1 -8.51407 1.18011 11.8354
36 1 -8.07705 1.7424 12.5187
37 1 -7.73304 2.09048 13.3584
38 1 -7.59803 2.64795 14.0359
39 1 -7.80347 3.51112 14.3519
40 1 -8.23493 4.34477 14.5164
41 1 -8.47958 5.17332 14.5995
42 1 -8.93512 6.0083 14.6693
43 1 -9.3138 6.87186 14.7561
44 1 -9.40566 7.80695 14.6495
45 1 -9.62316 8.70393 14.2963
46 1 -9.74998 9.63178 14.0382
47 1 -9.71015 10.6173 13.8524
48 1 -9.84215 11.5396 13.9082
49 1 -10.0435 12.4185 14.3108
50 1 -10.1675 13.2976 14.4449
51 1 -10.1827 14.1401 14.7712
52 1 -9.9174 15.0284 14.7984
53 1 -9.81845 15.9008 14.8671
54 1 -9.79757 16.7172 14.3699
55 1 -10.375 17.1445 13.829
56 1 -10.9484 17.7069 13.2672
57 1 -11.3953 18.0949 12.4944
58 1 -11.323 18.224 11.5728
59 1 -11.4812 18.657 10.7956
60 1 -11.8297 19.0221 10.0494
61 1 -12.2476 19.3722 9.29705
62 1 -12.6037 19.4764 8.39586
63 1 -13.3888 19.5912 7.77222
64 1 -14.2687 19.7942 7.34886
65 1 -15.1529 19.8459 7.0262
66 1 -15.9397 19.8983 6.54756
67 1 -16.6989 20.1351 6.06125
68 1 -17.4713 20.5938 5.80526
69 1 -18.2128 21.2187 5.51439
70 1 -19.0078 21.7835 5.51478
71 1 -19.8762 22.128 5.33332
72 1 -20.7838 22.4769 5.29344
73 1 -21.637 22.7268 5.27799
74 1 -22.4116 23.2989 5.41733
75 1 -22.9847 23.7297 6.03185
76 1 -23.33 24.5451 6.43293
77 1 -23.2068 25.3877 6.89238
78 1 -22.9207 26.2532 7.07639
79 1 -22.5176 27.0817 7.30446
80 1 -22.5434 28.0073 7.26856
81 1 -22.8442 28.8957 7.17123
82 1 -23.1327 29.5696 6.55867
83 1 -23.5131 30.1581 5.86754
84 1 -23.7615 30.8202 5.28673
85 1 -24.1615 31.519 4.83732
86 1 -24.541 32.2336 4.35429
87 1 -25.2434 32.8891 4.07867
88 1 -25.9881 33.3377 3.71628
89 1 -26.583 33.8034 3.07424
90 1 -27.1812 34.301 2.51154
91 1 -27.3295 34.8697 1.75113
92 1 -27.199 35.1626 0.865624
93 1 -26.9185 35.1381 -0.00631819
94 1 -26.5947 34.9871 -0.866044
95 1 -26.2509 34.5196 -1.63283
96 1 -26.2895 33.9626 -2.46819
97 1 -26.4833 33.4398 -3.2009
98 1 -26.4179 32.9718 -4.00071
99 1 -26.2683 32.4988 -4.84693
100 1 -26.416 32.2481 -5.71488
101 1 -26.3183 31.7785 -6.56783
102 1 -26.1674 31.0222 -7.13626
103 1 -25.9675 30.0765 -7.18845
104 1 -25.7512 29.3056 -6.82806
105 1 -25.7147 28.3987 -6.58431
106 1 -25.1941 27.7641 -6.15359
107 1 -24.5964 27.153 -5.77911
108 1 -23.994 26.6167 -5.22314
109 1 -23.3584 26.1644 -4.77987
110 1 -22.499 25.8414 -4.51443
111 1 -21.5583 25.8735 -4.59579
112 1 -20.6859 25.8994 -4.94724
113 1 -19.7553 25.946 -5.14955
114 1 -19.1711 26.6011 -5.40726
115 1 -18.7072 27.3323 -5.7206
116 1 -18.2665 27.9533 -6.26528
117 1 -17.7755 28.6144 -6.7158
118 1 -17.0597 29.2161 -6.80012
119 1 -16.3842 29.9226 -6.87107
120 1 -15.6466 30.4635 -6.98784
121 1 -14.9593 30.9922 -7.41229
122 1 -14.6078 31.5244 -8.05774
123 1 -14.5605 32.4248 -8.11004
124 1 -14.6052 33.2481 -7.85382
125 1 -14.5027 34.1714 -7.6791
126 1 -14.0091 34.9386 -7.71904
127 1 -13.5754 35.7379 -7.4219
128 1 -13.2701 36.5894 -7.08969
129 1 -12.8579 37.2496 -6.58178
130 1 -12.5246 37.7655 -5.84885
131 1 -11.8928 38.0105 -5.20818
132 1 -11.244 38.2785 -4.55076
133 1 -11.1223 38.4571 -3.624
134 1 -11.1325 38.5482 -2.64847
135 1 -10.9644 38.5589 -1.69029
136 1 -11.0733 38.0292 -0.868819
137 1 -11.0381 37.3077 -0.201207
138 1 -10.6325 36.7157 0.356639
139 1 -10.1505 36.0802 0.8986
140 1 -9.69302 35.2851 0.919863
141 1 -9.19891 34.6159 0.50738
142 1 -8.75868 33.8806 0.208836
143 1 -8.61633 33.192 -0.425962
144 1 -8.35822 32.4305 -0.981266
145 1 -8.03373 31.6466 -1.36365
146 1 -7.84428 30.7169 -1.5283
147 1 -7.86973 29.8019 -1.79667
148 1 -7.94723 29.0084 -2.36003
149 1 -8.20836 28.4 -3.01606
150 1 -8.45899 27.8519 -3.75755
151 1 -8.40333 27.1384 -4.41043
152 1 -8.44981 26.5144 -5.07867
153 1 -8.39982 25.7804 -5.73476
154 1 -8.09238 25.3634 -6.52023
155 1 -7.90588 25.1427 -7.36474
156 1 -7.98988 24.8652 -8.26959
157 1 -8.17895 24.2906 -8.99489
158 1 -8.40956 23.5933 -9.57577
159 1 -8.36524 22.9023 -10.2083
160 1 -8.33997 22.1346 -10.7826
161 1 -7.98073 21.6197 -11.4573
162 1 -7.53457 21.1402 -12.1545
163 1 -6.9481 20.4067 -12.3657
164 1 -6.20838 19.9257 -12.7763
165 1 -5.38606 19.4963 -12.6789
166 1 -4.57548 19.1233 -12.5967
167 1 -3.93972 18.4968 -12.5097
168 1 -3.21134 18.1885 -13.0382
169 1 -2.51573 17.8074 -13.5839
170 1 -1.7532 17.4467 -14.0476
171 1 -0.92968 17.1842 -14.4748
172 1 -0.374855 16.8416 -15.1304
173 1 0.348766 16.621 -15.6553
174 1 1.17391 16.7088 -16.0825
175 1 2.0936 16.7641 -16.3189
176 1 2.98509 16.3651 -16.373
177 1 3.74353 15.7598 -16.4534
178 1 4.51201 15.3058 -16.4445
179 1 5.18338 14.6998 -16.6703
180 1 5.96944 14.3375 -17.0793
181 1 6.78469 13.9278 -17.2778
182 1 7.44246 13.2452 -17.3074
183 1 7.90943 12.4097 -17.1949
184 1 8.30224 11.6648 -16.81
185 1 8.52687 10.8058 -16.5757
186 1 8.83479 9.97702 -16.1807
187 1 9.0361 9.1888 -15.6616
188 1 9.13361 8.49974 -15.0171
189 1 9.01427 7.8289 -14.3697
190 1 9.34684 7.13767 -13.6988
191 1 9.56061 6.53021 -13.0413
192 1 10.061 6.24941 -12.3019
193 1 10.4769 5.90762 -11.4534
194 1 10.793 6.16055 -10.5413
195 1 11.0903 6.1168 -9.6558
196 1 11.2294 5.95186 -8.7264
197 1 11.1502 5.66466 -7.80841
198 1 11.3975 5.73715 -6.88537
199 1 11.6437 5.75435 -5.98272
200 1 11.8106 5.41842 -5.15399
201 1 11.7463 5.24139 -4.25992
202 1 11.7883 5.09257 -3.29631
203 1 12.0115 4.63118 -2.47172
204 1 12.4316 4.32486 -1.75766
205 1 12.354 4.21011 -0.867255
206 1 12.5416 3.6224 -0.133017
207 1 12.5186 3.04113 0.593465
208 1 12.9218 2.34612 1.18442
209 1 13.016 1.5723 1.72883
210 1 13.0573 0.840717 2.32971
211 1 12.7453 0.276049 3.07375
212 1 12.1393 -0.255088 3.59849
213 1 12.0488 -0.929272 4.2244
214 1 12.1871 -1.70009 4.73272
215 1 12.44 -2.53879 4.99996
216 1 12.6198 -3.42096 5.18658
217 1 13.0505 -4.17148 5.54903
218 1 13.6162 -4.97877 5.40876
219 1 13.8987 -5.83181 5.05015
220 1 14.2552 -6.6618 4.74184
221 1 14.678 -7.37668 4.37993
222 1 14.8963 -8.34516 4.39294
223 1 15.1917 -9.18498 4.21783
224 1 15.6521 -9.95049 3.99367
225 1 15.5921 -10.7949 3.49734
226 1 15.5827 -11.5531 2.89687
227 1 16.1921 -11.9234 2.25005
228 1 16.7705 -12.5144 1.88714
229 1 17.4832 -13.0164 1.65377
230 1 18.1155 -13.6947 1.48308
231 1 18.7524 -14.3539 1.40808
232 1 19.4293 -15.0147 1.12237
233 1 19.933 -15.7572 0.782126
234 1 20.516 -16.4686 0.583307
235 1 21.1615 -17.0986 0.366057
236 1 21.811 -17.8234 0.267223
237 1 22.6832 -18.0573 -0.025664
238 1 23.5781 -18.0461 -0.230145
239 1 24.4359 -18.1649 -0.719492
240 1 25.2294 -18.5129 -1.03132
241 1 26.0053 -18.9182 -1.3508
242 1 26.4412 -19.3001 -2.03487
243 1 26.9104 -19.4479 -2.86714
244 1 27.5745 -19.7153 -3.51404
245 1 27.9612 -19.8503 -4.36035
246 1 28.2216 -20.4522 -5.08155
247 1 28.4755 -21.1931 -5.61195
248 1 28.6765 -22.0341 -6.02913
249 1 29.1136 -22.7708 -6.39896
250 1 29.4317 -23.3506 -7.04202
251 1 29.7269 -23.8545 -7.85066
252 1 29.8825 -24.438 -8.63356
253 1 29.918 -25.1083 -9.29799
254 1 29.6541 -25.6273 -9.99244
255 1 29.3989 -26.4153 -10.4868
256 1 29.1531 -27.1409 -11.0247
ITEM: TIMESTEP
2350000
ITEM: NUMBER OF ATOMS
256
ITEM: BOX BOUNDS mm mm mm
-1.2800000000000000e+02 1.2800000000000000e+02
-1.2800000000000000e+02 1.2800000000000000e+02
-1.2800000000000000e+02 1.2800000000000000e+02
ITEM: ATOMS id type x y z
1 1 -18.223 10.4668 -8.2878
2 1 -18.4615 9.52096 -8.47879
3 1 -18.4665 8.65502 -8.91653
4 1 -18.3748 7.74336 -9.04907
5 1 -18.1027 6.83226 -8.87702
6 1 -18.1893 5.93632 -8.7782
7 1 -18.0437 5.01501 -8.83654
8 1 -17.8788 4.09498 -9.07651
9 1 -18.0769 3.231 -8.8998
10 1 -18.0616 2.32567 -8.62129
11 1 -17.9061 1.50634 -8.03409
12 1 -17.8337 1.02191 -7.24126
13 1 -17.707 0.962241 -6.31823
14 1 -17.3729 0.901897 -5.45304
15 1 -16.8123 1.00479 -4.70402
16 1 -16.1613 0.687838 -4.1131
17 1 -15.5251 0.765565 -3.44219
18 1 -14.9139 0.810647 -2.72137
19 1 -14.3284 0.672861 -1.94631
20 1 -13.6661 0.679003 -1.20526
21 1 -12.8065 1.0334 -0.924129
22 1 -12.1263 1.63652 -0.537596
23 1 -11.4551 2.05956 -0.011608
24 1 -10.8988 2.47831 0.699619
25 1 -10.5238 2.76116 1.56181
26 1 -9.99674 3.22768 2.17481
27 1 -9.55248 3.68581 2.87642
28 1 -8.90913 3.79753 3.59743
29 1 -8.23953 4.14804 4.16283
30 1 -7.687 4.43366 4.76784
31 1 -7.34293 4.14867 5.58043
32 1 -7.3084 3.76135 6.47515
33 1 -7.1022 3.41031 7.37363
34 1 -6.81586 3.10786 8.21103
35 1 -6.33916 2.58924 8.90308
36 1 -5.60651 2.27349 9.5121
37 1 -5.22219 2.61531 10.3377
38 1 -4.79589 3.00415 11.0981
39 1 -4.40077 3.34028 11.8622
40 1 -4.04387 3.81582 12.6269
41 1 -3.48113 4.4401 13.0561
42 1 -2.97625 4.92101 13.6782
43 1 -2.68836 5.68411 14.0825
44 1 -2.96924 6.37847 14.6988
45 1 -3.30167 7.12344 15.284
46 1 -3.79102 7.87578 15.0593
47 1 -4.17088 8.73712 14.942
48 1 -4.57687 9.34825 14.2852
49 1 -4.78023 10.0757 13.7926
50 1 -5.3747 10.553 13.191
51 1 -5.57705 11.2415 12.6119
52 1 -5.80431 11.8603 11.8891
53 1 -6.25712 12.4956 11.3502
54 1 -6.79577 13.2611 11.0759
55 1 -7.07019 14.1182 10.8832
56 1 -7.47219 14.9498 10.6792
57 1 -7.90549 15.7848 10.53
58 1 -8.30769 16.611 10.2969
59 1 -8.34153 17.452 9.90947
60 1 -8.21171 18.2576 9.44267
61 1 -8.38526 19.059 8.99034
62 1 -8.27699 19.809 8.53289
63 1 -8.23851 20.6706 8.26263
64 1 -8.04945 21.5095 7.79456
65 1 -8.49175 22.1054 7.2234
66 1 -9.25891 22.547 6.97039
67 1 -10.0986 22.9633 6.81079
68 1 -10.9294 23.4056 6.60853
69 1 -11.8822 23.3945 6.65049
70 1 -12.8128 23.3074 6.7049
71 1 -13.7208 23.4567 6.85354
72 1 -14.5193 24.0011 6.98145
73 1 -15.1508 24.666 7.21109
74 1 -15.8026 25.3183 7.09674
75 1 -16.4878 25.9275 7.28032
76 1 -17.2091 26.5635 7.25256
77 1 -18.1438 26.8454 7.16738
78 1 -19.0165 27.1798 7.45935
79 1 -19.8885 27.4714 7.17708
80 1 -20.4668 28.1272 6.83242
81 1 -21.1043 28.6074 6.3533
82 1 -21.5551 29.2878 5.98705
83 1 -22.0057 30.0396 5.69351
84 1 -22.348 30.8047 5.146
85 1 -22.5577 31.5286 4.58086
86 1 -23.1706 32.1162 4.21002
87 1 -23.7789 32.6909 3.76932
88 1 -24.3466 32.9967 3.12706
89 1 -24.8749 33.1103 2.29874
90 1 -25.7365 33.1114 1.96674
91 1 -26.538 33.3999 1.45383
92 1 -27.1947 33.8996 0.88561
93 1 -27.7521 34.5573 0.476471
94 1 -28.3322 35.1683 0.150596
95 1 -28.6534 35.5753 -0.675705
96 1 -28.9454 35.9647 -1.45003
97 1 -29.3143 36.4778 -2.17483
98 1 -29.6083 36.7858 -2.98927
99 1 -29.5506 36.6914 -3.96337
100 1 -29.7281 36.5482 -4.86301
101 1 -29.9244 36.1207 -5.69488
102 1 -30.1385 35.5041 -6.37856
103 1 -30.0874 34.5943 -6.51086
104 1 -29.6485 33.7119 -6.67506
105 1 -29.2523 32.9474 -7.02162
106 1 -28.8397 32.1737 -7.31459
107 1 -28.2947 31.607 -7.80609
108 1 -27.9425 30.9024 -8.32573
109 1 -27.7683 30.3737 -9.07852
110 1 -27.8854 29.7013 -9.66903
111 1 -27.5758 28.9629 -10.1887
112 1 -26.9046 28.2858 -10.4422
113 1 -26.2724 27.6918 -10.1993
114 1 -25.6239 27.1028 -9.77504
115 1 -25.0422 26.661 -9.1981
116 1 -24.2609 26.3594 -8.83938
117 1 -23.49 25.9236 -8.49318
118 1 -22.6252 26.0594 -8.2098
119 1 -21.8559 26.6796 -8.25986
120 1 -21.0346 27.2651 -8.31382
121 1 -20.3085 27.6581 -8.66658
122 1 -19.723 28.3263 -8.78044
123 1 -18.9569 28.8947 -8.44368
124 1 -18.2551 29.4585 -8.25097
125 1 -17.6138 30.0881 -8.15579
126 1 -16.9133 30.7077 -8.05067
127 1 -16.3471 31.4212 -7.72045
128 1 -15.6091 31.9006 -7.47175
129 1 -14.7156 32.144 -7.1786
130 1 -13.9366 32.3776 -6.80695
131 1 -13.54 33.0719 -6.24131
132 1 -13.0466 33.8223 -5.86067
133 1 -12.5539 34.3729 -5.32246
134 1 -11.8372 34.9641 -5.10667
135 1 -11.1351 35.5975 -5.00998
136 1 -10.2952 36.1301 -4.80598
137 1 -9.42888 36.3357 -4.52392
138 1 -8.55605 36.5178 -4.14318
139 1 -7.63845 36.452 -4.12235
140 1 -6.76366 36.6587 -4.39962
141 1 -5.83024 36.8879 -4.68688
142 1 -4.98669 36.8166 -5.07193
143 1 -4.37312 36.4596 -5.7201
144 1 -4.22191 35.7817 -6.29818
145 1 -4.43008 34.8563 -6.53134
146 1 -4.43379 33.9871 -7.09996
147 1 -4.61776 33.0745 -7.14341
148 1 -4.82627 32.1057 -7.17973
149 1 -5.29261 31.3055 -7.19006
150 1 -5.83218 30.6563 -7.48722
151 1 -6.36792 30.0162 -7.85213
152 1 -6.72641 29.1626 -8.02329
153 1 -6.96019 28.2489 -8.09973
154 1 -7.14616 27.5133 -8.62146
155 1 -6.86206 26.9491 -9.32622
156 1 -6.6018 26.2424 -9.83912
157 1 -6.35815 25.475 -10.2402
158 1 -6.33914 24.6334 -10.7101
159 1 -5.93453 23.8605 -11.0832
160 1 -5.502 23.1965 -11.5315
161 1 -5.00164 22.5016 -11.8331
162 1 -4.72599 21.6584 -12.1745
163 1 -4.15318 20.9793 -12.4298
164 1 -3.76593 20.1666 -12.7307
165 1 -3.15289 19.5601 -13.0826
166 1 -2.44663 18.9901 -13.3995
167 1 -1.7647 18.3648 -13.6506
168 1 -1.08393 17.9177 -14.0924
169 1 -0.242772 17.4759 -14.0486
170 1 0.508094 17.016 -13.7201
171 1 1.22299 16.5082 -13.3503
172 1 2.03218 16.1485 -13.0323
173 1 2.77762 15.6302 -12.8816
174 1 3.47762 14.9867 -12.8458
175 1 4.22989 14.3747 -12.8937
176 1 5.083 14.1508 -13.1412
177 1 5.96067 13.7726 -13.2528
178 1 6.68077 13.3388 -13.6229
179 1 7.498 13.0106 -14.0574
180 1 8.36054 12.8318 -14.3033
181 1 9.12939 12.7422 -14.7683
182 1 9.94798 12.5908 -15.0905
183 1 10.86 12.4801 -15.2628
184 1 11.6716 12.0303 -15.0595
185 1 12.3184 11.4159 -14.6605
186 1 12.8741 10.7584 -14.2586
187 1 13.3182 9.97679 -13.9322
188 1 13.5297 9.05371 -13.9117
189 1 13.3518 8.35669 -13.329
190 1 13.2285 7.62015 -12.7444
191 1 13.3136 7.01253 -12.0519
192 1 13.4418 6.23621 -11.5291
193 1 13.083 5.41789 -11.3308
194 1 13.0028 4.61246 -10.7883
195 1 13.0987 3.82893 -10.2015
196 1 13.6133 3.69501 -9.41546
197 1 13.8602 3.57181 -8.54461
198 1 13.9178 2.88944 -7.86091
199 1 14.2241 2.2381 -7.33165
200 1 14.4403 1.54079 -6.78669
201 1 15.1565 1.11734 -6.20077
202 1 15.3363 0.589838 -5.46784
203 1 15.5813 0.223724 -4.66834
204 1 16.0683 -0.227414 -4.01079
205 1 16.6729 -0.622202 -3.43112
206 1 17.2276 -1.03714 -2.77602
207 1 17.7818 -1.70885 -2.45922
208 1 18.2476 -2.42086 -2.12153
209 1 18.7017 -2.97842 -1.52228
210 1 19.0578 -3.28795 -0.696073
211 1 19.4932 -3.37151 0.131683
212 1 19.9374 -3.89223 0.764839
213 1 20.2288 -4.48001 1.44109
214 1 20.6307 -4.65237 2.24295
215 1 20.7192 -4.9437 3.13031
216 1 20.7262 -5.52364 3.88783
217 1 20.9579 -6.0493 4.67253
218 1 20.9773 -6.77213 5.30577
219 1 20.8876 -7.63081 5.63144
220 1 20.9387 -8.5566 5.94717
221 1 20.7449 -9.42011 6.30573
222 1 20.3953 -10.1983 6.58877
223 1 20.6716 -11.1254 6.52499
224 1 21.1309 -11.9394 6.28423
225 1 22.0079 -12.3091 6.21578
226 1 22.8657 -12.7023 6.3303
227 1 23.5524 -13.3035 6.13651
228 1 24.3281 -13.8274 6.0918
229 1 25.038 -14.4359 5.94469
230 1 25.7892 -14.8176 5.50401
231 1 26.3113 -14.9456 4.68267
232 1 26.6743 -14.9954 3.8333
233 1 27.1905 -14.9746 2.99064
234 1 27.867 -14.9398 2.30602
235 1 28.3336 -14.8624 1.56035
236 1 28.6809 -15.3163 0.809184
237 1 28.7254 -16.0324 0.193953
238 1 28.6441 -16.8398 -0.325496
239 1 28.3412 -17.6499 -0.693529
240 1 28.3053 -18.4433 -1.27924
241 1 28.0449 -19.2 -1.76225
242 1 27.5431 -19.839 -2.20997
243 1 27.14 -20.2215 -2.94364
244 1 26.5465 -20.4857 -3.59227
245 1 26.081 -20.8187 -4.34147
246 1 25.6838 -21.472 -4.8887
247 1 25.2976 -21.9985 -5.62361
248 1 24.9364 -22.6713 -6.16966
249 1 24.7563 -23.2759 -6.80745
250 1 25.0643 -23.6932 -7.61468
251 1 25.2152 -24.3819 -8.32929
252 1 25.4206 -24.8723 -9.08717
253 1 25.6137 -25.1691 -9.94919
254 1 25.8619 -25.5557 -10.7346
255 1 26.1685 -26.2123 -11.3176
256 1 26.4282 -26.7849 -12.013
ITEM: TIMESTEP
2360000
ITEM: NUMBER OF ATOMS
256
ITEM: BOX BOUNDS mm mm mm
-1.2800000000000000e+02 1.2800000000000000e+02
-1.2800000000000000e+02 1.2800000000000000e+02
-1.2800000000000000e+02 1.2800000000000000e+02
ITEM: ATOMS id type x y z
1 1 -19.9519 9.5714 -8.32856
2 1 -19.2991 9.04643 -7.99655
3 1 -18.6795 8.63127 -7.42954
4 1 -18.4581 8.32671 -6.53329
5 1 -18.5268 8.05904 -5.67927
6 1 -18.819 7.69225 -4.83531
7 1 -19.0357 7.23606 -4.08615
8 1 -18.8749 6.87377 -3.25442
9 1 -18.3427 6.41128 -2.63751
10 1 -17.9778 5.54276 -2.35862
11 1 -18.0331 4.81914 -1.79267
12 1 -18.0322 4.11939 -1.14064
13 1 -17.8036 3.2875 -0.581077
14 1 -17.5144 2.41032 -0.314321
15 1 -17.1692 1.69281 0.17324
16 1 -17.2276 1.2413 0.952212
17 1 -17.1041 0.628486 1.63711
18 1 -16.5087 0.20257 2.163
19 1 -15.739 -0.384672 2.2542
20 1 -14.9275 -0.756224 2.60731
21 1 -14.0486 -0.881288 2.84829
22 1 -13.1947 -1.27483 2.91199
23 1 -12.2563 -1.44524 2.77473
24 1 -11.4613 -1.71739 2.34345
25 1 -10.485 -1.91758 2.3584
26 1 -9.58104 -2.07073 2.5843
27 1 -8.78095 -2.06705 3.02402
28 1 -8.01605 -2.00176 3.54938
29 1 -7.52886 -1.5578 4.16476
30 1 -7.0376 -1.30182 4.91586
31 1 -6.72463 -1.14081 5.80253
32 1 -6.43781 -1.14801 6.72363
33 1 -6.72792 -0.9489 7.661
34 1 -7.26232 -0.904823 8.40855
35 1 -7.79472 -0.662555 9.11155
36 1 -8.1475 -0.221146 9.90174
37 1 -8.54646 0.270968 10.5997
38 1 -8.67503 0.959777 11.2261
39 1 -8.36852 1.821 11.4805
40 1 -7.74794 2.33532 12.0146
41 1 -7.23425 2.7586 12.6386
42 1 -6.82341 3.32948 13.2534
43 1 -6.7074 4.19712 13.5291
44 1 -6.37838 4.97169 14.0049
45 1 -5.99909 5.86682 14.1126
46 1 -5.82666 6.785 14.2269
47 1 -5.50264 7.69247 14.2695
48 1 -5.2619 8.49394 13.7672
49 1 -5.16577 9.20771 13.1666
50 1 -5.1963 10.0561 12.7044
51 1 -5.25919 10.777 12.0515
52 1 -5.90426 11.1681 11.5046
53 1 -6.53215 11.8561 11.2425
54 1 -6.96905 12.6431 10.9799
55 1 -7.35317 13.4494 10.651
56 1 -7.75484 14.1994 10.2569
57 1 -8.43265 14.6777 9.80724
58 1 -8.90531 15.4393 9.42194
59 1 -9.07515 16.0626 8.71854
60 1 -9.29898 16.901 8.2641
61 1 -9.54974 17.7126 7.8069
62 1 -10.0097 18.5077 7.61982
63 1 -10.188 19.4301 7.35659
64 1 -10.5706 20.1263 6.89643
65 1 -10.8611 21.0062 6.71626
66 1 -11.1693 21.8375 6.47587
67 1 -11.5149 22.6476 6.33729
68 1 -11.5288 23.5386 6.14542
69 1 -11.4187 24.4408 6.10336
70 1 -11.5661 25.4571 6.17014
71 1 -12.14 26.244 6.37564
72 1 -12.9063 26.8084 6.32043
73 1 -13.4246 27.5967 6.20955
74 1 -14.1335 28.1734 6.31635
75 1 -15.079 28.3508 6.2863
76 1 -15.973 28.3583 6.45039
77 1 -16.9362 28.3954 6.65237
78 1 -17.7091 28.5397 7.15576
79 1 -18.2556 28.8369 7.81743
80 1 -18.8011 29.5106 8.18438
81 1 -19.4202 30.2377 8.20625
82 1 -19.8171 31.063 8.03191
83 1 -20.0426 31.9414 7.66012
84 1 -20.4576 32.7678 7.63505
85 1 -20.7425 33.5393 7.13276
86 1 -21.037 34.0472 6.43995
87 1 -21.6422 34.6104 6.00008
88 1 -22.2377 34.9671 5.34484
89 1 -22.6678 35.5459 4.75744
90 1 -23.0129 35.9802 4.01052
91 1 -23.6 36.2907 3.32888
92 1 -24.2173 36.5911 2.73523
93 1 -24.8783 36.5748 2.07471
94 1 -25.5625 36.7735 1.41146
95 1 -25.8963 37.0462 0.570804
96 1 -26.2416 37.141 -0.263414
97 1 -26.2686 37.2208 -1.22731
98 1 -26.1339 37.4299 -2.18512
99 1 -25.5718 37.7446 -2.89014
100 1 -24.9594 37.8105 -3.57453
101 1 -24.4452 37.8709 -4.39527
102 1 -23.9599 37.6057 -5.21158
103 1 -23.766 37.0314 -5.918
104 1 -23.7789 36.3333 -6.59904
105 1 -24.0463 35.6096 -7.10564
106 1 -24.4764 34.9213 -7.5298
107 1 -25.153 34.2159 -7.73123
108 1 -25.7754 33.806 -8.35191
109 1 -26.1102 33.9292 -9.1982
110 1 -26.046 33.942 -10.1116
111 1 -25.689 33.4915 -10.7954
112 1 -25.082 33.1316 -11.4647
113 1 -24.5152 32.4113 -11.6977
114 1 -23.8149 31.7768 -11.5871
115 1 -22.897 31.8108 -11.1636
116 1 -22.1273 31.9271 -10.6986
117 1 -21.3819 32.2353 -10.0832
118 1 -20.6626 32.6344 -9.56704
119 1 -20.2028 33.1602 -8.9778
120 1 -19.7978 33.7271 -8.30945
121 1 -19.7493 34.0567 -7.44099
122 1 -19.8486 34.3924 -6.5647
123 1 -19.9806 34.7971 -5.67517
124 1 -19.9688 35.0042 -4.75866
125 1 -20.2418 35.1491 -3.8899
126 1 -19.9478 35.2544 -3.0425
127 1 -19.8308 35.8085 -2.28152
128 1 -19.5755 36.3566 -1.57415
129 1 -19.0756 36.8517 -0.974343
130 1 -18.2678 37.2195 -0.669843
131 1 -17.4589 37.671 -0.511175
132 1 -16.6733 38.2171 -0.644968
133 1 -16.1757 38.9058 -0.29012
134 1 -15.5042 39.5826 -0.144863
135 1 -14.7041 40.1033 -0.193657
136 1 -13.8541 40.5741 -0.256055
137 1 -13.0294 40.9394 -0.282219
138 1 -12.1898 41.078 -0.560697
139 1 -11.3269 40.8033 -0.851314
140 1 -10.7282 40.4397 -1.49313
141 1 -10.2625 40.1188 -2.29649
142 1 -9.80603 39.5449 -2.95965
143 1 -9.41178 38.9138 -3.54897
144 1 -8.95871 38.163 -3.85671
145 1 -8.50094 37.4077 -4.23183
146 1 -8.24946 36.5911 -4.66306
147 1 -7.95831 35.7211 -4.85117
148 1 -8.05373 34.8134 -4.78686
149 1 -7.48949 34.0551 -4.72515
150 1 -6.90497 33.264 -4.70943
151 1 -6.41457 32.545 -4.59009
152 1 -5.98899 31.7484 -4.62757
153 1 -5.45751 30.9766 -4.61491
154 1 -4.86051 30.3097 -4.32291
155 1 -4.14496 29.6818 -4.44026
156 1 -3.26995 29.3062 -4.44329
157 1 -2.46732 28.8543 -4.45183
158 1 -1.73169 28.3182 -4.48893
159 1 -1.03922 27.6854 -4.74953
160 1 -0.290205 27.083 -4.75487
161 1 0.571074 26.7434 -4.58947
162 1 1.11731 25.9767 -4.69607
163 1 1.56911 25.1638 -4.81885
164 1 1.97527 24.6477 -5.48568
165 1 2.63766 24.3537 -6.03586
166 1 3.37032 24.1617 -6.63055
167 1 3.66666 23.8638 -7.45602
168 1 3.51795 23.3918 -8.23966
169 1 3.59863 23.3441 -9.14497
170 1 3.72063 22.9443 -10.0164
171 1 4.23961 22.4577 -10.6549
172 1 4.63498 21.8765 -11.2981
173 1 5.1816 21.1113 -11.6065
174 1 5.32613 20.3488 -12.1545
175 1 5.68558 19.4905 -12.3521
176 1 6.46515 18.9486 -12.3659
177 1 7.23651 18.481 -12.7294
178 1 8.18165 18.3597 -12.9214
179 1 9.13118 18.3569 -12.8832
180 1 9.95889 17.9337 -13.0144
181 1 10.7229 17.4426 -13.2292
182 1 11.2241 16.6554 -13.3234
183 1 11.735 15.8135 -13.3979
184 1 12.2911 15.051 -13.2544
185 1 12.4243 14.0937 -13.4101
186 1 12.4514 13.0889 -13.3591
187 1 12.5925 12.1691 -13.2254
188 1 12.7774 11.2309 -13.0892
189 1 12.8753 10.3633 -12.8963
190 1 13.0809 9.43717 -12.6629
191 1 13.1744 8.66731 -12.0709
192 1 13.2994 7.88086 -11.6085
193 1 13.6115 7.15103 -11.0479
194 1 13.9769 6.47292 -10.5283
195 1 14.0466 5.52175 -10.2663
196 1 13.9922 4.55629 -10.0771
197 1 14.0591 3.62713 -10.0417
198 1 14.458 2.75892 -10.1844
199 1 14.9104 1.94053 -10.2311
200 1 15.2931 1.10067 -10.1997
201 1 15.3649 0.161047 -10.0311
202 1 15.51 -0.592927 -9.39396
203 1 15.785 -1.00544 -8.51168
204 1 16.2383 -1.51947 -7.92098
205 1 16.4394 -2.07389 -7.17821
206 1 16.9946 -2.39419 -6.5014
207 1 17.5817 -2.41838 -5.76244
208 1 18.1315 -2.66842 -5.08896
209 1 18.8567 -2.87194 -4.5405
210 1 19.6033 -2.4357 -4.13321
211 1 20.1815 -1.79914 -3.67334
212 1 21.0569 -1.57276 -3.29455
213 1 21.7072 -1.5386 -2.63736
214 1 22.5312 -1.67894 -2.11951
215 1 23.1325 -2.30931 -1.70072
216 1 23.5462 -3.13557 -1.80723
217 1 23.7712 -3.92432 -1.33322
218 1 23.8645 -4.74687 -0.819499
219 1 23.4151 -5.41571 -0.31301
220 1 23.0824 -5.97625 0.341495
221 1 22.9785 -6.57423 0.982036
222 1 23.1558 -7.19798 1.64663
223 1 23.0741 -7.86649 2.34557
224 1 23.6528 -8.29384 2.86772
225 1 24.2165 -9.02597 3.12952
226 1 24.8281 -9.71518 2.97847
227 1 25.5862 -10.1263 2.58952
228 1 26.0531 -10.6177 1.89865
229 1 26.6793 -10.7473 1.20063
230 1 27.1313 -11.0109 0.362468
231 1 27.0453 -11.5556 -0.461504
232 1 27 -12.4413 -0.765076
233 1 27.0989 -13.2083 -1.30332
234 1 27.1354 -14.0809 -1.75992
235 1 26.7725 -14.8573 -2.12922
236 1 26.6697 -15.6298 -2.67054
237 1 26.2387 -16.3014 -3.12168
238 1 25.7348 -16.6654 -3.84378
239 1 25.1451 -17.1845 -4.36846
240 1 24.6574 -17.9407 -4.55411
241 1 24.1517 -18.3711 -5.14416
242 1 23.2937 -18.5576 -5.42364
243 1 22.5609 -18.9711 -5.87843
244 1 21.9856 -19.7141 -6.08228
245 1 21.9147 -20.5512 -6.51725
246 1 21.5788 -21.0688 -7.23483
247 1 21.7419 -21.352 -8.16667
248 1 21.7764 -21.7324 -9.09313
249 1 21.7684 -22.2952 -9.86296
250 1 21.7928 -23.0354 -10.4652
251 1 21.5346 -23.838 -10.8903
252 1 21.137 -24.45 -11.6305
253 1 20.8861 -25.2617 -12.0232
254 1 20.7947 -26.1028 -12.3505
255 1 20.6273 -27.0183 -12.6274
256 1 20.9388 -27.8805 -12.7377
ITEM: TIMESTEP
2370000
ITEM: NUMBER OF ATOMS
256
ITEM: BOX BOUNDS mm mm mm
-1.2800000000000000e+02 1.2800000000000000e+02
-1.2800000000000000e+02 1.2800000000000000e+02
-1.2800000000000000e+02 1.2800000000000000e+02
ITEM: ATOMS id type x y z
1 1 -23.7056 11.5572 -7.85184
2 1 -22.8304 11.3011 -7.63154
3 1 -22.0069 10.8806 -7.66094
4 1 -21.4224 10.3664 -7.07645
5 1 -21.1387 9.85992 -6.32158
6 1 -20.9016 9.12683 -5.71338
7 1 -20.6146 8.60481 -4.93894
8 1 -20.5939 8.25789 -4.10681
9 1 -20.4221 8.01672 -3.2048
10 1 -20.259 8.07211 -2.31418
11 1 -20.3411 7.8782 -1.42368
12 1 -20.8596 7.7556 -0.624593
13 1 -20.8839 7.42006 0.222574
14 1 -21.2499 7.23272 1.0907
15 1 -21.1512 6.81202 1.97416
16 1 -21.098 6.12129 2.65817
17 1 -20.6484 5.4266 3.04796
18 1 -20.4527 4.68191 3.64259
19 1 -20.3982 3.8722 4.04231
20 1 -20.268 3.10905 4.5118
21 1 -20.0114 2.24363 4.70671
22 1 -19.4206 1.49736 4.76597
23 1 -18.8994 0.754554 4.67494
24 1 -18.2219 0.150553 4.56315
25 1 -17.501 -0.389809 4.67369
26 1 -16.8075 -1.03727 4.69972
27 1 -15.9755 -1.42155 4.92005
28 1 -15.1855 -1.73224 5.32491
29 1 -14.3847 -1.77696 5.77373
30 1 -13.5952 -1.66967 6.24911
31 1 -12.7392 -1.29159 6.61148
32 1 -11.8892 -1.08278 7.05154
33 1 -11.1392 -0.802923 7.46808
34 1 -10.3893 -0.522738 7.92716
35 1 -9.5252 -0.231 8.13622
36 1 -8.64291 0.0803404 8.18772
37 1 -7.88025 0.544054 8.41303
38 1 -7.36727 1.282 8.71653
39 1 -6.67609 1.92807 8.65977
40 1 -6.06658 2.63866 8.49159
41 1 -5.62328 3.5241 8.5328
42 1 -5.2061 4.30714 8.72882
43 1 -5.32104 5.19679 9.01192
44 1 -5.47076 6.09897 8.95657
45 1 -5.67783 7.026 8.97452
46 1 -5.83612 7.87233 8.53044
47 1 -6.0703 8.69216 8.19262
48 1 -6.18156 9.55543 7.80965
49 1 -6.30966 10.3355 7.30673
50 1 -6.34375 11.2021 6.90835
51 1 -6.53813 12.1016 6.72959
52 1 -6.52787 13.011 6.4793
53 1 -6.66268 13.9023 6.32408
54 1 -6.90013 14.7751 5.97336
55 1 -7.00189 15.6866 5.90358
56 1 -7.06504 16.5637 5.60613
57 1 -7.13492 17.4453 5.27858
58 1 -6.90864 18.2846 5.01649
59 1 -6.83157 19.2336 4.82939
60 1 -6.4954 20.1496 4.84258
61 1 -6.32715 21.0251 5.08991
62 1 -6.20849 21.9846 5.53945
63 1 -6.40429 22.9169 5.56479
64 1 -6.66726 23.8357 5.55726
65 1 -6.85698 24.723 5.33697
66 1 -7.20513 25.5951 5.28067
67 1 -7.7719 26.3368 5.44834
68 1 -8.48742 26.9124 5.41022
69 1 -9.28226 27.3398 5.33785
70 1 -10.1443 27.6928 5.134
71 1 -11.0599 27.8451 5.01753
72 1 -11.9731 28.1446 4.9431
73 1 -12.7882 28.5748 4.80611
74 1 -13.7226 28.7764 4.89601
75 1 -14.532 28.9424 5.33884
76 1 -15.3819 29.1905 5.60364
77 1 -16.2111 29.7395 5.69606
78 1 -17.116 29.8825 5.80158
79 1 -17.988 30.1459 5.62372
80 1 -18.8839 30.4733 5.58215
81 1 -19.704 30.8482 5.26269
82 1 -20.391 31.4018 4.91793
83 1 -21.0439 31.7362 4.3766
84 1 -21.6659 32.1202 3.81043
85 1 -21.9176 32.4797 2.9546
86 1 -22.0706 32.585 2.06775
87 1 -22.5351 32.7686 1.24934
88 1 -22.9891 33.2916 0.564492
89 1 -23.6029 33.7948 0.000359762
90 1 -24.3527 33.7785 -0.53197
91 1 -25.1955 33.8612 -0.924856
92 1 -26.0842 34.0395 -0.93264
93 1 -27.0276 34.1502 -1.19765
94 1 -27.9877 34.2156 -1.25114
95 1 -28.8396 34.0749 -1.47947
96 1 -29.796 33.8447 -1.72096
97 1 -30.5257 33.7449 -2.29237
98 1 -31.3953 33.9912 -2.69964
99 1 -32.1053 34.358 -3.15036
100 1 -32.9686 34.3972 -3.65369
101 1 -33.3544 34.1197 -4.43083
102 1 -33.3681 34.268 -5.4126
103 1 -32.8119 34.1289 -6.12952
104 1 -32.0974 33.9428 -6.76491
105 1 -31.2859 34.022 -7.23652
106 1 -30.4796 33.8242 -7.69153
107 1 -29.7988 33.6355 -8.30587
108 1 -29.0768 33.2073 -8.73655
109 1 -28.275 32.8968 -9.04338
110 1 -27.3491 32.6102 -9.1166
111 1 -26.4131 32.3907 -9.0023
112 1 -25.7002 32.2537 -8.39021
113 1 -24.8619 32.0659 -8.04948
114 1 -24.1162 31.5871 -7.91543
115 1 -23.2568 31.5558 -7.53272
116 1 -22.5428 31.9546 -7.06768
117 1 -21.836 32.4211 -6.56205
118 1 -21.1179 33.0545 -6.38664
119 1 -20.6523 33.771 -6.10103
120 1 -20.3066 34.4582 -5.57259
121 1 -19.978 35.3053 -5.22103
122 1 -20.0536 36.236 -5.13394
123 1 -20.2516 37.0441 -5.53482
124 1 -20.127 37.8895 -5.91604
125 1 -19.9746 38.7918 -5.75235
126 1 -19.7493 39.7329 -5.6328
127 1 -19.3931 40.4524 -5.20346
128 1 -19.1994 41.2761 -4.73046
129 1 -18.8636 42.0356 -4.31794
130 1 -18.3168 42.6827 -3.88515
131 1 -17.7904 43.4075 -3.72917
132 1 -16.9931 43.9551 -3.48636
133 1 -16.1673 44.1694 -3.23087
134 1 -15.2796 44.4229 -3.53621
135 1 -14.3754 44.6863 -3.81255
136 1 -13.4902 44.5348 -3.94396
137 1 -12.7446 44.0201 -4.27223
138 1 -11.9045 43.544 -4.21232
139 1 -11.1113 43.0268 -4.14112
140 1 -10.3185 42.5176 -4.09451
141 1 -9.67031 41.9031 -3.88733
142 1 -8.94154 41.2973 -3.69301
143 1 -8.38284 40.5463 -3.65932
144 1 -7.75184 39.9254 -3.57594
145 1 -6.99076 39.3184 -3.63351
146 1 -6.35535 38.6058 -3.5182
147 1 -5.8376 37.8577 -3.31305
148 1 -5.15672 37.2923 -3.26205
149 1 -4.57864 36.5715 -3.31141
150 1 -4.11777 36.0287 -3.92203
151 1 -3.64648 35.4173 -4.50383
152 1 -3.49378 34.7857 -5.17302
153 1 -3.21398 33.9796 -5.68459
154 1 -2.96685 33.1566 -6.11201
155 1 -2.51765 32.4138 -6.46469
156 1 -2.0042 31.8337 -6.98768
157 1 -1.6055 31.2321 -7.6456
158 1 -1.29718 30.9931 -8.50721
159 1 -0.709212 30.6697 -9.13277
160 1 -0.290615 30.2449 -9.84101
161 1 0.477903 30.2318 -10.3076
162 1 1.02663 30.0444 -11.1043
163 1 1.6113 29.8996 -11.8064
164 1 1.95745 29.7457 -12.687
165 1 2.2294 29.3659 -13.5077
166 1 2.71287 28.6277 -13.8208
167 1 3.19992 27.8283 -13.7231
168 1 3.6149 27.0193 -13.4815
169 1 3.96422 26.1547 -13.3614
170 1 4.15005 25.3493 -12.8519
171 1 4.44122 24.5169 -12.3783
172 1 4.83896 23.7921 -11.9314
173 1 5.24725 23.3874 -11.1747