ITEM: TIMESTEP
1780000
ITEM: NUMBER OF ATOMS
256
ITEM: BOX BOUNDS mm mm mm
-1.2800000000000000e+02 1.2800000000000000e+02
-1.2800000000000000e+02 1.2800000000000000e+02
-1.2800000000000000e+02 1.2800000000000000e+02
ITEM: ATOMS id type x y z
1 1 -11.3598 28.4537 7.94421
2 1 -10.9335 28.1141 8.65437
3 1 -11.3362 27.6954 9.42285
4 1 -11.8519 28.0032 10.1752
5 1 -12.7602 28.181 9.92956
6 1 -13.4752 28.4644 10.417
7 1 -14.2667 28.7195 10.0349
8 1 -14.6727 27.9286 10.2604
9 1 -15.5656 27.7511 9.97053
10 1 -15.76 27.5848 10.9571
11 1 -15.3294 27.772 11.7596
12 1 -15.5755 28.6001 12.1167
13 1 -16.2065 28.4941 11.4393
14 1 -16.9262 27.9127 11.3234
15 1 -17.0272 27.1827 11.8785
16 1 -17.3008 26.9098 10.9784
17 1 -18.2197 27.0222 10.9431
18 1 -18.9489 27.4101 11.4946
19 1 -19.7169 27.3021 12.1102
20 1 -19.5261 26.3843 12.2877
21 1 -19.4577 25.4412 12.3462
22 1 -20.3114 25.2181 12.7404
23 1 -20.457 24.3759 13.1809
24 1 -21.3516 24.4676 12.8951
25 1 -22.3101 24.7111 12.9985
26 1 -23.0208 25.3353 12.9379
27 1 -23.9005 25.238 13.2736
28 1 -24.4142 25.4997 12.5521
29 1 -24.2552 26.1329 11.845
30 1 -24.7673 26.3647 11.0254
31 1 -25.4382 25.7246 10.7626
32 1 -26.3733 25.6512 10.8301
33 1 -26.8392 25.0014 11.2662
34 1 -27.1875 25.0342 10.3718
35 1 -27.8964 25.3269 9.82942
36 1 -27.7905 25.5473 8.95019
37 1 -27.9402 25.6831 8.05898
38 1 -27.7491 25.3049 7.21457
39 1 -27.2807 25.5488 6.45324
40 1 -26.5835 25.006 6.81611
41 1 -26.9419 24.1179 6.91229
42 1 -26.2021 23.6743 7.1935
43 1 -26.6164 22.9362 6.79732
44 1 -26.8514 22.6679 7.62905
45 1 -27.4665 22.0841 8.18694
46 1 -28.3435 22.5568 8.15484
47 1 -29.2807 22.3822 8.27146
48 1 -29.9871 22.9794 8.65016
49 1 -29.8417 23.7355 9.29132
50 1 -29.2796 23.2696 9.86825
51 1 -29.0429 22.3218 9.78193
52 1 -29.6022 21.6909 10.161
53 1 -29.6244 20.7896 10.4437
54 1 -30.1831 20.0807 10.6188
55 1 -31.0109 19.998 10.9784
56 1 -31.8271 19.7904 10.4586
57 1 -31.6983 18.9409 10.0938
58 1 -32.0651 18.3049 9.5196
59 1 -32.2787 17.5017 9.06732
60 1 -32.939 18.0036 8.67238
61 1 -32.4619 17.8716 7.87814
62 1 -32.1098 17.4923 7.10161
63 1 -31.5069 17.9154 6.54894
64 1 -30.8842 17.7417 7.24896
65 1 -30.6108 16.8379 7.18753
66 1 -30.4207 16.8251 6.26055
67 1 -30.4596 15.9651 5.85164
68 1 -29.6828 15.3975 5.56694
69 1 -29.992 14.4031 5.50673
70 1 -29.6526 14.3157 4.60745
71 1 -28.8382 13.8607 4.71304
72 1 -29.6364 13.2201 4.62026
73 1 -29.241 13.2649 3.73654
74 1 -28.8004 12.4336 3.89889
75 1 -28.6021 11.6926 4.53582
76 1 -28.2776 12.2554 5.21631
77 1 -29.1645 11.9906 5.52307
78 1 -28.5707 11.2817 5.65239
79 1 -28.2244 10.7637 6.40166
80 1 -28.3773 11.0456 7.23839
81 1 -28.7182 11.8649 6.78974
82 1 -27.9256 12.4569 6.76907
83 1 -26.9835 12.3747 6.80434
84 1 -26.281 11.9496 6.34645
85 1 -25.9403 12.8496 6.32445
86 1 -25.582 13.0003 7.19959
87 1 -24.977 12.8202 7.93344
88 1 -24.2858 12.2743 7.50789
89 1 -23.5637 11.8683 6.99136
90 1 -22.6807 12.0586 6.69936
91 1 -22.3168 12.5936 5.93929
92 1 -21.9881 13.4631 6.13319
93 1 -21.6113 14.2715 5.98243
94 1 -21.9308 14.0732 5.15794
95 1 -22.2261 13.4601 4.56354
96 1 -23.083 13.1554 4.32239
97 1 -23.4187 12.3395 3.90637
98 1 -22.9456 11.5403 3.66052
99 1 -23.9134 11.1372 3.4928
100 1 -24.6318 10.8133 4.00956
101 1 -25.116 11.6755 4.01355
102 1 -25.2919 12.6121 3.96322
103 1 -24.8353 13.3507 3.48783
104 1 -25.6169 13.4282 2.95783
105 1 -25.0549 14.2007 2.84311
106 1 -25.0151 14.3127 1.87272
107 1 -24.5214 14.0456 1.1271
108 1 -23.8095 13.9845 0.551979
109 1 -23.3877 13.6181 -0.207281
110 1 -24.1156 13.5034 -0.902473
111 1 -24.5843 12.967 -1.53277
112 1 -23.9472 12.2891 -1.63619
113 1 -23.3874 11.7421 -1.04723
114 1 -23.5763 12.2004 -0.249304
115 1 -24.2635 11.5865 -0.121943
116 1 -23.5438 10.9437 -0.0704651
117 1 -23.0982 10.5754 0.646836
118 1 -22.8816 10.965 1.52058
119 1 -22.8429 10.0193 1.79678
120 1 -22.4489 10.1674 2.73083
121 1 -22.905 9.75896 3.48399
122 1 -23.6427 9.84766 2.9464
123 1 -24.3071 9.29073 3.28954
124 1 -23.7174 8.7568 2.72798
125 1 -23.7626 8.42131 1.88528
126 1 -23.5039 7.66351 1.35688
127 1 -22.7261 7.22576 1.53403
128 1 -22.535 6.73236 0.738717
129 1 -22.0133 5.94076 0.699417
130 1 -22.2715 5.22188 0.228235
131 1 -21.9954 4.61056 0.868719
132 1 -21.1437 4.31992 0.960218
133 1 -21.6238 3.79622 0.265377
134 1 -22.2146 3.54461 0.90065
135 1 -22.985 3.05273 1.06609
136 1 -22.7 2.86251 0.225777
137 1 -23.3595 2.33882 -0.175054
138 1 -23.4989 2.08388 0.765045
139 1 -23.0823 1.91215 1.60773
140 1 -22.2669 1.47005 1.34644
141 1 -22.0003 1.0323 0.525483
142 1 -21.9285 0.184684 0.99467
143 1 -22.4503 -0.374874 1.55225
144 1 -22.6305 -1.3342 1.77519
145 1 -22.1464 -1.51461 2.64199
146 1 -22.1824 -2.43206 2.68319
147 1 -22.4275 -3.26796 2.31378
148 1 -22.1478 -4.13344 2.09977
149 1 -21.9295 -5.00657 2.32806
150 1 -21.8491 -5.69302 2.97419
151 1 -21.7358 -6.19294 3.79314
152 1 -22.123 -6.98764 4.0255
153 1 -22.4143 -7.69436 4.56119
154 1 -22.0896 -7.97299 5.41744
155 1 -21.5586 -7.16514 5.43986
156 1 -21.2415 -6.64156 4.75385
157 1 -20.4459 -6.14772 4.47421
158 1 -19.7821 -6.79965 4.40443
159 1 -20.1506 -7.38278 3.76559
160 1 -20.0453 -7.45349 2.87491
161 1 -19.7579 -7.64964 2.00404
162 1 -19.1024 -7.62757 1.33672
163 1 -18.3429 -7.30203 0.902367
164 1 -18.7865 -6.48712 0.758813
165 1 -18.168 -6.77763 0.0381371
166 1 -18.6539 -6.91551 -0.745886
167 1 -19.2065 -7.4575 -0.203957
168 1 -20.0868 -7.34483 0.149065
169 1 -19.8086 -8.21901 0.435359
170 1 -20.5555 -7.95681 0.882127
171 1 -21.0962 -8.7262 1.08929
172 1 -21.4785 -8.60161 1.91436
173 1 -22.2578 -8.58242 1.43865
174 1 -22.9112 -7.88395 1.52362
175 1 -23.2373 -7.40088 2.34897
176 1 -23.9957 -6.78832 2.48993
177 1 -24.2699 -6.64736 3.41782
178 1 -23.4017 -6.79828 3.7872
179 1 -22.8359 -6.22917 4.21219
180 1 -23.4191 -5.65015 4.67892
181 1 -23.2837 -6.40099 5.16313
182 1 -23.9117 -6.92838 5.61386
183 1 -24.386 -6.3247 6.18917
184 1 -24.6523 -5.45614 6.05733
185 1 -25.3652 -5.87175 5.54248
186 1 -25.1507 -5.17755 5.01651
187 1 -25.0636 -5.02466 4.06186
188 1 -24.9003 -4.0895 3.98721
189 1 -24.8577 -3.71758 4.85347
190 1 -25.3378 -2.92629 4.69243
191 1 -24.8613 -2.15826 4.28109
192 1 -24.8759 -1.7418 3.43975
193 1 -25.5519 -2.08961 2.82248
194 1 -26.2589 -2.13823 2.22032
195 1 -26.6867 -2.88471 2.63227
196 1 -27.3216 -2.19393 2.55801
197 1 -27.5566 -2.87574 1.9809
198 1 -28.0824 -3.66489 2.22615
199 1 -28.8304 -3.2744 2.50168
200 1 -28.7551 -2.46748 2.95348
201 1 -28.6496 -1.51679 2.96583
202 1 -28.381 -1.00338 2.2359
203 1 -28.6424 -1.1709 1.38707
204 1 -28.418 -1.1335 0.469325
205 1 -29.1185 -1.80489 0.686848
206 1 -28.5324 -2.52635 0.472327
207 1 -28.8357 -3.41424 0.379888
208 1 -29.1901 -3.2859 -0.485965
209 1 -28.4239 -3.60564 -0.911011
210 1 -28.9784 -4.33961 -0.634872
211 1 -29.8993 -4.53729 -0.787175
212 1 -30.3314 -5.33773 -1.09309
213 1 -30.811 -4.51696 -1.26091
214 1 -31.3303 -5.22368 -0.86185
215 1 -31.912 -5.14362 -1.58597
216 1 -31.4691 -5.04722 -2.43555
217 1 -30.8144 -5.63428 -2.80382
218 1 -30.6256 -5.75687 -3.69908
219 1 -30.9924 -6.53248 -4.09964
220 1 -31.6028 -6.32791 -3.39469
221 1 -32.0845 -6.80513 -2.7209
222 1 -32.6106 -7.5408 -2.60774
223 1 -32.8287 -8.42946 -2.50142
224 1 -33.24 -9.04226 -2.97015
225 1 -34.052 -9.49964 -3.13975
226 1 -34.2432 -10.2421 -3.69268
227 1 -33.9308 -10.7963 -2.98147
228 1 -33.7273 -11.4206 -2.2845
229 1 -32.9462 -11.9313 -2.34608
230 1 -32.1526 -11.4361 -2.04392
231 1 -31.9225 -10.9485 -1.22439
232 1 -31.5645 -11.2086 -0.408959
233 1 -31.9952 -11.4781 0.417132
234 1 -32.2106 -11.1677 1.28617
235 1 -31.4817 -11.7038 1.28419
236 1 -31.4067 -12.2663 2.08703
237 1 -30.8012 -11.6334 2.48666
238 1 -31.7315 -11.2395 2.56294
239 1 -32.216 -10.5224 2.06622
240 1 -32.8602 -9.89244 2.38701
241 1 -33.7357 -9.74167 2.65753
242 1 -33.6332 -9.08831 3.34867
243 1 -33.1538 -8.40098 3.8001
244 1 -32.362 -8.83124 3.44674
245 1 -31.6124 -8.83852 2.937
246 1 -30.7426 -9.22692 2.942
247 1 -30.9445 -9.82043 3.71518
248 1 -31.5406 -9.42483 4.35284
249 1 -31.8264 -9.20852 5.24478
250 1 -31.7664 -8.90761 6.11794
251 1 -31.0351 -9.02178 6.67718
252 1 -30.1722 -8.84774 6.94858
253 1 -29.5399 -8.24854 6.62094
254 1 -28.8404 -7.62437 6.80958
255 1 -29.3216 -7.38319 5.991
256 1 -28.7632 -6.69429 6.19137
ITEM: TIMESTEP
1790000
ITEM: NUMBER OF ATOMS
256
ITEM: BOX BOUNDS mm mm mm
-1.2800000000000000e+02 1.2800000000000000e+02
-1.2800000000000000e+02 1.2800000000000000e+02
-1.2800000000000000e+02 1.2800000000000000e+02
ITEM: ATOMS id type x y z
1 1 -14.351 28.3473 10.3089
2 1 -14.8096 27.9368 11.0121
3 1 -13.9123 27.7485 11.2028
4 1 -13.6969 26.9324 10.7496
5 1 -14.3263 26.6773 11.3547
6 1 -14.9427 26.4517 12.0493
7 1 -14.9783 25.7553 11.412
8 1 -14.9376 26.0504 10.5118
9 1 -15.3744 26.8762 10.4723
10 1 -15.3065 27.6869 10.0173
11 1 -14.7106 28.0292 9.40383
12 1 -14.8283 28.6397 8.72184
13 1 -14.9335 29.5562 8.90059
14 1 -14.8229 29.5429 7.991
15 1 -14.1122 30.0156 8.36776
16 1 -13.6498 30.7952 8.33242
17 1 -14.5045 31.2449 8.25654
18 1 -15.1724 31.6783 7.78307
19 1 -15.9915 31.3392 7.42375
20 1 -16.3629 30.6428 7.88464
21 1 -17.0147 30.2257 8.42043
22 1 -17.3845 29.5048 8.00043
23 1 -18.2546 29.3427 7.61476
24 1 -19.1371 29.6306 7.29999
25 1 -19.2904 28.7468 7.59271
26 1 -19.8124 29.0225 6.82885
27 1 -20.4929 28.367 6.84682
28 1 -20.1452 27.7847 7.51309
29 1 -20.4637 26.8863 7.82067
30 1 -20.6776 26.4088 8.62331
31 1 -21.4655 26.654 9.04765
32 1 -22.3662 26.8328 9.33842
33 1 -23.149 26.5464 9.77485
34 1 -24.0771 26.4635 9.82131
35 1 -24.3337 26.8431 10.6293
36 1 -25.2657 26.7339 10.9231
37 1 -25.7867 26.9645 10.191
38 1 -26.4489 26.2764 10.3385
39 1 -26.4224 25.4769 10.8693
40 1 -27.0654 26.0824 11.1753
41 1 -27.5994 26.7061 11.5891
42 1 -28.2349 26.0796 11.6811
43 1 -28.9449 25.8412 11.1167
44 1 -28.3788 25.0934 11.1581
45 1 -27.6402 24.507 11.0411
46 1 -27.2755 23.6339 10.9232
47 1 -26.5142 23.2121 10.6894
48 1 -26.446 22.9487 11.6485
49 1 -26.6327 22.5361 12.4966
50 1 -26.3512 21.8697 11.9051
51 1 -25.4626 21.856 11.7468
52 1 -24.7561 21.5108 11.202
53 1 -24.6723 21.4178 10.2803
54 1 -25.1162 21.0814 9.54946
55 1 -25.7613 20.9305 8.82287
56 1 -25.9153 20.4669 8.03232
57 1 -25.7287 19.7313 8.63171
58 1 -25.846 18.9906 8.12004
59 1 -25.3837 18.2467 7.83351
60 1 -25.8332 17.4245 8.22321
61 1 -26.7452 17.1761 8.05081
62 1 -27.6905 17.2866 8.28397
63 1 -28.3337 17.0332 8.91788
64 1 -29.25 17.2334 9.02796
65 1 -29.9406 17.6076 9.61438
66 1 -30.3301 16.7564 9.39049
67 1 -30.547 16.1755 8.65208
68 1 -30.7874 15.4086 8.18455
69 1 -30.7364 14.6336 7.67619
70 1 -30.5239 13.6693 7.90975
71 1 -30.4511 13.5036 6.99783
72 1 -30.7891 12.7664 6.57343
73 1 -30.3112 11.9581 6.7719
74 1 -30.0725 11.7093 5.92645
75 1 -30.8532 11.2913 5.66031
76 1 -31.4299 12.0321 5.92306
77 1 -32.2328 11.849 5.42455
78 1 -31.9925 12.0135 4.53057
79 1 -32.1255 11.4971 3.7374
80 1 -32.2365 10.6898 4.19937
81 1 -31.5382 10.1347 4.51365
82 1 -31.0542 9.37748 4.79426
83 1 -30.3246 9.93943 4.8885
84 1 -30.2395 10.8555 4.70473
85 1 -29.5409 10.8474 5.26226
86 1 -29.0018 11.2619 4.55647
87 1 -28.0836 11.1045 4.66902
88 1 -27.219 11.1236 5.05502
89 1 -27.2953 10.2065 5.21935
90 1 -27.0837 9.39364 4.91827
91 1 -26.2747 8.9394 5.19066
92 1 -25.4176 9.03648 5.4949
93 1 -24.8457 8.96552 6.24764
94 1 -24.9732 8.11399 5.89796
95 1 -24.9597 7.4217 6.50075
96 1 -24.3034 6.76616 6.44469
97 1 -23.6754 7.38464 6.07514
98 1 -23.7048 7.79074 5.23009
99 1 -22.7962 7.67323 5.3849
100 1 -22.6255 8.56788 5.23087
101 1 -22.026 9.11924 4.79179
102 1 -21.827 9.02567 3.92785
103 1 -21.3959 9.70624 3.41981
104 1 -20.5673 9.45777 3.67116
105 1 -20.1162 10.171 4.04197
106 1 -19.4202 10.5633 3.45393
107 1 -19.4454 11.1934 2.78039
108 1 -19.2367 12.087 2.47014
109 1 -18.3216 11.8414 2.65636
110 1 -17.8707 12.6364 2.76337
111 1 -18.0927 12.6078 1.88991
112 1 -17.7834 11.7803 1.63929
113 1 -17.5905 10.8812 1.70852
114 1 -17.2322 10.3794 2.42202
115 1 -17.8855 10.6553 3.13687
116 1 -18.1377 10.08 3.84499
117 1 -18.4799 9.35723 4.35931
118 1 -18.9279 9.12463 3.56033
119 1 -19.1874 8.73341 2.77991
120 1 -19.0843 8.06944 2.10161
121 1 -19.526 7.60194 1.46275
122 1 -20.2569 8.10559 1.70324
123 1 -20.4407 8.33952 2.57207
124 1 -20.9703 8.28287 3.34065
125 1 -21.3717 7.71549 4.01245
126 1 -21.3896 7.33402 4.88279
127 1 -21.651 6.49841 4.70262
128 1 -21.8054 6.00001 3.91916
129 1 -21.8237 5.04191 3.89124
130 1 -21.3435 4.22164 3.84815
131 1 -20.6039 4.06771 4.36319
132 1 -20.5551 3.6014 3.53658
133 1 -20.7455 3.13934 2.74514
134 1 -19.9893 2.70992 2.45024
135 1 -19.1446 2.86869 2.86197
136 1 -18.5528 2.99009 3.53156
137 1 -18.5197 2.04127 3.69802
138 1 -19.3904 1.63262 3.60567
139 1 -19.2522 1.57252 2.67687
140 1 -20.19 1.40115 2.83521
141 1 -20.0385 0.714209 3.41934
142 1 -20.1594 -0.251117 3.46794
143 1 -19.292 -0.156654 3.07921
144 1 -18.9048 -0.785171 2.4646
145 1 -19.1294 -0.534103 1.62221
146 1 -19.5716 -0.783032 0.836379
147 1 -20.1656 -1.507 0.785759
148 1 -20.6219 -2.12354 1.3492
149 1 -21.549 -2.46299 1.34156
150 1 -20.9849 -3.07031 0.861807
151 1 -20.7466 -3.78025 0.28202
152 1 -19.9464 -3.58005 0.763266
153 1 -19.1315 -3.74522 0.226152
154 1 -19.5859 -3.97442 -0.479971
155 1 -20.465 -4.22762 -0.646305
156 1 -20.8309 -4.79384 -0.00129684
157 1 -20.9278 -4.66081 0.985155
158 1 -21.2129 -5.49107 1.37322
159 1 -20.9737 -6.16992 0.76796
160 1 -21.7131 -6.63622 0.968761
161 1 -22.3169 -6.84239 1.63626
162 1 -21.9555 -6.83839 2.44984
163 1 -21.4049 -6.28628 2.94231
164 1 -21.963 -6.40132 3.65727
165 1 -22.8521 -6.47229 3.69651
166 1 -23.742 -6.74111 3.99242
167 1 -24.3872 -6.41921 3.45405
168 1 -25.0463 -7.01555 3.74962
169 1 -25.5051 -6.95784 4.58525
170 1 -26.2694 -7.47753 5.01058
171 1 -26.6507 -6.69158 4.69896
172 1 -26.6249 -5.86991 5.1376
173 1 -25.6736 -5.79891 5.1244
174 1 -25.596 -5.63027 4.20006
175 1 -26.3128 -5.03257 4.29241
176 1 -27.2073 -4.87259 3.96498
177 1 -27.5716 -4.84211 4.81169
178 1 -27.9425 -4.02239 4.64713
179 1 -27.7087 -3.69913 5.47166
180 1 -27.8343 -2.92277 6.01553
181 1 -27.5615 -2.50428 6.80448
182 1 -27.4165 -1.92958 6.05378
183 1 -28.1094 -1.57694 5.56183
184 1 -27.4129 -1.17715 5.00673
185 1 -26.6498 -0.993804 4.54172
186 1 -25.6709 -1.10691 4.59879
187 1 -25.5931 -0.229844 4.22147
188 1 -25.1748 -0.631063 3.4792
189 1 -24.3629 -1.08429 3.61205
190 1 -24.0482 -0.977238 2.70402
191 1 -24.0463 -1.43361 1.89951
192 1 -23.3994 -2.06255 1.63419
193 1 -23.6726 -2.32327 0.792617
194 1 -23.6384 -3.10326 0.355569
195 1 -23.7078 -2.56009 -0.431499
196 1 -24.6399 -2.48526 -0.38357
197 1 -25.5539 -2.60973 -0.353792
198 1 -25.4408 -2.35436 -1.2518
199 1 -26.2659 -2.03885 -1.60818
200 1 -26.5286 -1.27138 -1.18689
201 1 -26.8418 -0.724795 -0.492314
202 1 -26.083 -0.397159 -0.00693218
203 1 -25.5819 -0.296211 0.788501
204 1 -26.1376 -1.05324 0.907798
205 1 -26.2397 -0.537108 1.68281
206 1 -26.5383 -0.776559 2.51585
207 1 -25.7647 -1.34695 2.41724
208 1 -25.7864 -2.28063 2.18572
209 1 -25.4333 -2.232 3.07118
210 1 -25.0703 -2.96028 3.58972
211 1 -25.2002 -3.33068 2.73351
212 1 -25.2332 -4.11199 3.32066
213 1 -24.737 -4.30413 2.53439
214 1 -25.3938 -4.95023 2.44986
215 1 -25.7754 -5.80402 2.57254
216 1 -26.6889 -6.09885 2.76762
217 1 -27.6085 -6.34217 2.61204
218 1 -28.0926 -6.23411 3.38038
219 1 -27.6427 -7.01085 3.7435
220 1 -28.2089 -7.65145 3.40253
221 1 -27.604 -8.20317 2.9518
222 1 -27.1536 -8.62222 2.26606
223 1 -27.7476 -7.93394 1.98049
224 1 -27.3099 -7.29604 1.50095
225 1 -27.9658 -7.10187 0.853816
226 1 -28.1324 -8.01701 1.02047
227 1 -28.2982 -8.88386 1.01908
228 1 -28.2022 -8.5982 0.0985669
229 1 -28.5718 -8.68967 -0.726553
230 1 -28.958 -9.30116 -1.26979
231 1 -29.1696 -9.64439 -0.393355
232 1 -28.4354 -10.19 -0.640378
233 1 -28.4676 -10.431 -1.61052
234 1 -29.2368 -10.8713 -1.70826
235 1 -29.8986 -10.7457 -2.36298
236 1 -30.6407 -11.0658 -1.96894
237 1 -30.1284 -11.889 -1.83057
238 1 -30.1582 -12.813 -1.55483
239 1 -31.1481 -13.0202 -1.56935
240 1 -31.2575 -13.841 -1.02814
241 1 -31.954 -14.0078 -1.69428
242 1 -32.5507 -13.5125 -1.18438
243 1 -32.8969 -12.6731 -1.03459
244 1 -32.3551 -12.7035 -0.218323
245 1 -32.7382 -12.035 0.284023
246 1 -32.1568 -12.3764 0.980447
247 1 -31.5439 -12.0586 0.32558
248 1 -30.9823 -12.6391 -0.149553
249 1 -30.5651 -11.8982 -0.487748
250 1 -30.9054 -11.0496 -0.340791
251 1 -30.6973 -10.145 -0.105476
252 1 -30.7156 -9.18182 -0.238227
253 1 -30.944 -8.35133 0.0652368
254 1 -31.4125 -7.76321 -0.533669
255 1 -31.579 -8.52871 -1.02833
256 1 -31.2883 -9.34343 -1.30747
ITEM: TIMESTEP
1800000
ITEM: NUMBER OF ATOMS
256
ITEM: BOX BOUNDS mm mm mm
-1.2800000000000000e+02 1.2800000000000000e+02
-1.2800000000000000e+02 1.2800000000000000e+02
-1.2800000000000000e+02 1.2800000000000000e+02
ITEM: ATOMS id type x y z
1 1 -13.3943 32.7574 6.42815
2 1 -12.577 32.2782 6.65109
3 1 -11.8391 31.8331 6.90684
4 1 -11.1216 31.1972 6.80308
5 1 -11.231 31.818 6.08792
6 1 -11.8972 31.1602 5.90882
7 1 -12.6862 30.6734 5.64469
8 1 -13.3108 30.5699 4.89279
9 1 -13.5194 30.0706 5.67177
10 1 -13.667 29.2017 5.40861
11 1 -14.4127 29.8747 5.22564
12 1 -15.0129 30.4582 4.72188
13 1 -14.9247 30.1005 3.75907
14 1 -14.6116 30.4018 2.95204
15 1 -15.0578 29.615 2.65464
16 1 -15.282 28.7711 2.40189
17 1 -15.8156 28.5754 3.18767
18 1 -16.653 28.9537 3.19558
19 1 -17.0787 29.7247 3.52148
20 1 -17.553 30.244 4.13321
21 1 -18.0979 29.5346 3.97137
22 1 -18.0046 28.5903 3.84365
23 1 -17.4157 28.1884 4.47149
24 1 -17.242 28.1084 5.36881
25 1 -17.6716 29.0036 5.54174
26 1 -17.0711 29.3626 6.1635
27 1 -16.9986 29.4607 7.12611
28 1 -17.2304 28.5947 7.09206
29 1 -17.9378 29.1711 6.90971
30 1 -18.8478 29.4987 6.92244
31 1 -19.7839 29.3361 6.60349
32 1 -20.465 29.4738 7.19053
33 1 -20.406 28.7566 7.76547
34 1 -20.3345 28.2858 8.56261
35 1 -21.0425 28.0183 9.17347
36 1 -20.6032 27.2735 8.90015
37 1 -20.9379 26.4843 8.69286
38 1 -20.7491 26.3524 7.7707
39 1 -20.6425 27.0102 7.16421
40 1 -20.3145 27.7915 6.82416
41 1 -20.9764 28.3871 6.50782
42 1 -21.7696 28.446 5.90731
43 1 -22.1822 27.5547 5.74866
44 1 -21.9732 26.6317 5.61612
45 1 -22.3068 25.7668 5.60466
46 1 -23.2291 25.3126 5.69842
47 1 -23.7124 24.864 6.45565
48 1 -24.5156 24.3643 6.32488
49 1 -25.3908 24.5491 6.6034
50 1 -25.9694 24.0747 7.18298
51 1 -26.8555 24.0443 7.4105
52 1 -26.3025 23.5188 7.90878
53 1 -27.033 23.2072 8.33384
54 1 -26.7963 22.305 8.2506
55 1 -25.9075 22.3478 8.58669
56 1 -26.0114 21.6325 7.98732
57 1 -25.2326 21.1479 7.97605
58 1 -25.2111 20.8819 7.06189
59 1 -24.8291 20.1174 7.54266
60 1 -24.0066 19.7252 7.41765
61 1 -23.9596 20.4886 6.81177
62 1 -24.311 20.4156 5.90399
63 1 -23.758 20.3976 5.1294
64 1 -24.5473 20.8465 4.93083
65 1 -24.8832 21.6095 4.44253
66 1 -25.436 20.9538 4.02462
67 1 -26.1521 20.5206 4.49615
68 1 -26.3714 21.3753 4.78869
69 1 -27.0302 20.9761 5.31175
70 1 -27.5598 21.3722 6.07641
71 1 -28.1447 20.9537 6.72452
72 1 -28.7194 20.7267 5.99484
73 1 -29.379 20.2421 6.50166
74 1 -29.8203 20.4506 5.71022
75 1 -29.6178 19.5806 5.58251
76 1 -29.9084 18.852 5.01766
77 1 -30.1106 17.9838 5.23464
78 1 -29.624 17.866 4.49837
79 1 -29.3782 17.1842 3.89292
80 1 -30.0216 16.4763 3.72428
81 1 -30.3701 16.2227 4.57287
82 1 -30.4494 16.0556 5.48304
83 1 -30.5036 15.5885 6.3074
84 1 -29.6439 15.3568 6.09045
85 1 -29.9607 14.5847 5.73297
86 1 -29.6875 14.128 6.49643
87 1 -28.7544 14.2665 6.75629
88 1 -27.9304 13.8662 6.47844
89 1 -27.5833 12.988 6.71757
90 1 -28.3403 12.6401 7.13895
91 1 -28.2925 12.3888 6.21002
92 1 -27.9359 11.5593 6.39567
93 1 -27.1576 11.1378 6.05899
94 1 -26.4668 10.6772 5.63509
95 1 -25.7681 10.7483 6.31113
96 1 -24.9603 11.0759 6.60992
97 1 -24.9005 10.7384 5.74282
98 1 -25.2845 9.88508 5.985
99 1 -24.4333 9.72519 6.29482
100 1 -23.6189 9.96224 6.73394
101 1 -22.6732 10.0082 6.82529
102 1 -22.1376 9.54145 6.17004
103 1 -21.5532 9.60202 5.45726
104 1 -20.814 9.37619 5.95294
105 1 -20.5553 8.91456 6.76105
106 1 -20.0672 9.55197 7.32448
107 1 -19.7085 10.058 6.63213
108 1 -19.1258 9.56644 6.0618
109 1 -18.9295 8.6164 6.15371
110 1 -19.7967 8.77501 5.79235
111 1 -19.9185 8.18313 5.03607
112 1 -19.2928 8.0938 4.31745
113 1 -19.8149 7.72067 3.62526
114 1 -20.3616 8.3983 3.1977
115 1 -20.3527 8.43183 2.28517
116 1 -19.6813 9.08697 2.31391
117 1 -19.2148 8.34248 1.95174
118 1 -19.4879 7.54621 2.29819
119 1 -19.9456 6.80476 1.97734
120 1 -19.9507 6.00182 2.50411
121 1 -20.8675 6.03761 2.53292
122 1 -20.7763 5.14301 2.67373
123 1 -20.4484 4.29622 2.95181
124 1 -21.1644 3.93664 2.42534
125 1 -21.7645 4.67112 2.44751
126 1 -22.6497 4.86693 2.17634
127 1 -23.0877 5.21663 2.92124
128 1 -23.4193 6.04888 3.15524
129 1 -24.1733 5.62708 3.53529
130 1 -24.5891 4.82144 3.88436
131 1 -25.4438 4.28326 3.95326
132 1 -25.0073 3.67084 3.38455
133 1 -24.4983 2.91358 3.70736
134 1 -25.0296 2.13125 3.67315
135 1 -24.4546 1.44122 3.58648
136 1 -23.4872 1.37127 3.33909
137 1 -23.0422 0.591784 3.61112
138 1 -22.1776 0.38944 3.35979
139 1 -22.408 0.627742 2.50578
140 1 -22.6409 0.93648 1.66499
141 1 -21.9113 1.16365 1.15724
142 1 -21.011 1.13353 0.905801
143 1 -20.7871 0.303957 0.51795
144 1 -20.9778 -0.570707 0.699378
145 1 -21.1967 -0.901334 -0.0936382
146 1 -20.5746 -1.45771 0.323083
147 1 -19.9359 -1.05404 0.93155
148 1 -19.6105 -0.41977 0.328282
149 1 -19.5895 0.312573 -0.278507
150 1 -19.1258 1.01325 0.142731
151 1 -18.8766 0.769291 1.03005
152 1 -18.9686 0.206777 1.78879
153 1 -18.5148 -0.515777 1.42133
154 1 -17.805 -0.288638 0.89802
155 1 -17.6333 -1.16198 0.59226
156 1 -17.7563 -2.0505 0.82027
157 1 -17.4385 -2.67769 0.217487
158 1 -18.3032 -2.62971 -0.287061
159 1 -19.0906 -2.86722 -0.706901
160 1 -19.7606 -2.34195 -1.08571
161 1 -19.5984 -2.62954 -1.96431
162 1 -20.177 -3.33152 -1.81879
163 1 -20.8546 -2.93845 -1.30889
164 1 -21.4356 -3.06357 -0.555522
165 1 -22.2833 -3.49991 -0.456262
166 1 -22.7532 -4.0118 0.181163
167 1 -23.0882 -4.83589 0.324876
168 1 -23.4683 -4.7435 1.22395
169 1 -24.0025 -5.6036 1.30518
170 1 -23.8427 -5.6538 2.2663
171 1 -22.9485 -5.63403 2.49692
172 1 -23.4282 -4.90148 2.90714
173 1 -23.7639 -5.00624 3.8302
174 1 -24.3121 -4.21066 3.76096
175 1 -24.645 -3.61914 4.44602
176 1 -25.2149 -3.46371 5.15938
177 1 -25.6551 -4.22612 4.91445
178 1 -26.0978 -4.14626 4.06431
179 1 -26.4707 -5.00035 4.21747
180 1 -26.8492 -4.63129 4.96753
181 1 -27.0967 -3.70926 5.06625
182 1 -27.8689 -3.23128 4.80791
183 1 -27.186 -2.60124 4.84623
184 1 -27.48 -2.88215 3.89335
185 1 -27.1497 -2.81339 3.05915
186 1 -27.6408 -2.03911 2.85749
187 1 -27.8356 -1.13594 3.18853
188 1 -27.2902 -1.19128 2.42704
189 1 -26.4707 -0.822798 2.20681
190 1 -26.4221 -0.924414 1.23718
191 1 -27.0975 -1.18031 0.596442
192 1 -26.8553 -0.584706 -0.102224
193 1 -27.6178 -0.371957 -0.588325
194 1 -27.3535 0.0482018 -1.35493
195 1 -27.6966 0.78548 -1.8157
196 1 -28.1522 1.55075 -2.13876
197 1 -27.8433 1.53096 -3.00571
198 1 -27.1499 1.64086 -2.43457
199 1 -26.5008 2.25329 -2.7047
200 1 -26.3165 2.03442 -1.84192
201 1 -25.3937 1.93009 -2.1568
202 1 -25.0512 1.10734 -2.48798
203 1 -25.2972 0.879529 -1.62683
204 1 -26.152 0.883231 -1.97129
205 1 -25.7017 0.139334 -2.37347
206 1 -25.9189 -0.753611 -2.48841
207 1 -26.5656 -0.532958 -3.13038
208 1 -27.4667 -0.536902 -3.40304
209 1 -27.5743 -1.38768 -3.16008
210 1 -28.3082 -1.87951 -2.77925
211 1 -29.1881 -1.67003 -3.08925
212 1 -29.8226 -1.82015 -3.78653
213 1 -30.3018 -2.30663 -4.46756
214 1 -30.4122 -2.80836 -3.59263
215 1 -30.4739 -3.16537 -2.73846
216 1 -30.9049 -3.94812 -2.93105
217 1 -30.7036 -4.22807 -3.78627
218 1 -30.1681 -4.074 -4.55798
219 1 -29.3604 -4.39435 -5.01457
220 1 -28.4723 -4.13025 -4.74653
221 1 -28.2421 -4.90617 -5.32223
222 1 -27.5133 -5.45708 -4.96139
223 1 -28.092 -5.92118 -5.56136
224 1 -28.9946 -5.72406 -5.54734
225 1 -29.6435 -6.25663 -5.81524
226 1 -30.1264 -6.79901 -5.16131
227 1 -30.7257 -7.30186 -4.54004
228 1 -30.3759 -7.28656 -3.66511
229 1 -30.6359 -6.62754 -3.00866
230 1 -29.8055 -6.84738 -2.57198
231 1 -30.1073 -7.70601 -2.26757
232 1 -29.2689 -8.05835 -1.99511
233 1 -29.6109 -8.70596 -2.6067
234 1 -28.6662 -8.86591 -2.84807
235 1 -28.8698 -9.30165 -3.68814
236 1 -29.6817 -9.80389 -3.95846
237 1 -30.0573 -10.589 -4.40252
238 1 -29.3565 -11.2298 -4.41872
239 1 -29.1436 -11.571 -3.58924
240 1 -29.863 -11.98 -3.98729
241 1 -30.3536 -12.5224 -3.36337
242 1 -30.642 -13.3391 -3.6472
243 1 -30.3388 -13.9929 -3.07908
244 1 -29.5998 -13.479 -2.80844
245 1 -30.1528 -12.9516 -2.34194
246 1 -30.9879 -13.192 -2.61177
247 1 -31.7418 -12.6933 -2.74707
248 1 -32.3623 -13.2289 -2.32373
249 1 -32.0083 -14.0031 -2.66725
250 1 -31.4543 -14.131 -3.36932
251 1 -32.1397 -14.7216 -3.62121
252 1 -32.5687 -15.4921 -3.23962
253 1 -32.6028 -15.7353 -4.18341
254 1 -33.12 -15.3012 -4.80245
255 1 -33.5304 -16.1323 -4.95714
256 1 -33.7568 -16.1088 -4.00795
ITEM: TIMESTEP
1810000
ITEM: NUMBER OF ATOMS
256
ITEM: BOX BOUNDS mm mm mm
-1.2800000000000000e+02 1.2800000000000000e+02
-1.2800000000000000e+02 1.2800000000000000e+02
-1.2800000000000000e+02 1.2800000000000000e+02
ITEM: ATOMS id type x y z
1 1 -13.4904 22.5276 0.265799
2 1 -12.635 22.9078 0.386479
3 1 -13.2929 23.2537 0.961472
4 1 -13.4257 24.1671 1.12652
5 1 -13.2944 24.5171 1.98266
6 1 -13.1657 25.3245 2.48582
7 1 -13.4649 25.5198 3.3486
8 1 -13.8141 24.923 4.11666
9 1 -13.2558 25.5635 4.47095
10 1 -13.8128 26.2032 4.84413
11 1 -14.5497 25.6534 5.12053
12 1 -15.1117 25.6014 5.88332
13 1 -16.0003 25.4346 5.95995
14 1 -16.068 26.3147 5.57016
15 1 -16.5948 27.0276 5.24002
16 1 -16.7868 27.1942 6.11685
17 1 -16.9605 28.0432 5.73346
18 1 -16.4515 28.7999 5.42966
19 1 -17.1327 29.4563 5.31072
20 1 -17.8032 29.7771 5.8536
21 1 -18.3379 30.2951 5.27331
22 1 -18.5249 30.8109 4.50864
23 1 -19.2927 30.9289 3.96441
24 1 -20.1951 30.9555 3.64258
25 1 -21.0697 30.6189 3.71291
26 1 -21.2046 29.8545 4.26888
27 1 -21.0345 30.4889 4.92783
28 1 -21.8729 30.5118 5.33475
29 1 -22.7715 30.7945 5.38906
30 1 -22.9195 29.8168 5.21686
31 1 -23.3176 29.1717 4.68966
32 1 -24.1568 29.4106 5.06782
33 1 -24.9259 28.9244 4.99439
34 1 -25.1404 27.931 5.17541
35 1 -25.628 27.204 5.53282
36 1 -25.3313 26.5428 5.01031
37 1 -25.4212 25.629 5.37295
38 1 -25.6912 24.7828 5.1518
39 1 -25.0275 24.0642 5.10648
40 1 -25.7326 23.9207 5.74423
41 1 -25.9341 24.3245 6.53799
42 1 -26.6766 24.4041 6.00414
43 1 -26.9369 24.7316 5.16777
44 1 -27.7867 24.277 5.06834
45 1 -27.7278 23.2994 5.06703
46 1 -28.5555 23.2702 5.54
47 1 -29.1418 23.603 6.14414
48 1 -28.5456 23.4857 6.85033
49 1 -27.6502 23.116 6.94663
50 1 -27.6737 22.8087 7.83886
51 1 -27.4404 22.7273 8.73038
52 1 -28.4039 22.7715 8.68579
53 1 -28.7708 21.964 8.98131
54 1 -29.1297 21.2545 8.48778
55 1 -28.9786 21.2115 7.60246
56 1 -28.1337 20.6704 7.66287
57 1 -27.1343 20.6596 7.8409
58 1 -27.1011 20.6186 8.80434
59 1 -26.7139 19.7755 8.92084
60 1 -25.8145 19.9058 9.08704
61 1 -26.0354 19.0735 9.59735
62 1 -25.271 18.9234 10.0343
63 1 -25.2336 19.4738 10.7709
64 1 -24.3388 19.6387 11.1324
65 1 -24.685 20.4039 10.6011
66 1 -23.7541 20.6146 10.6106
67 1 -22.8377 20.2103 10.7947
68 1 -22.5218 19.3642 10.9225
69 1 -22.961 19.145 10.1832
70 1 -23.1711 18.1853 10.159
71 1 -24.0351 17.8233 10.0635
72 1 -23.9561 16.8781 10.1307
73 1 -24.3217 16.3125 9.45556
74 1 -24.8175 16.1072 8.67994
75 1 -24.9664 15.344 9.19862
76 1 -25.2458 14.6179 8.72328
77 1 -25.7005 14.4124 7.91555
78 1 -26.5231 14.9026 8.24101
79 1 -27.1049 14.6899 7.53766
80 1 -27.6831 14.5657 8.28031
81 1 -27.6293 13.7149 7.94462
82 1 -28.0019 12.9743 7.50552
83 1 -28.751 13.4091 7.25282
84 1 -28.461 13.8795 6.4987
85 1 -28.7526 14.7476 6.24146
86 1 -27.9271 14.5336 5.80558
87 1 -27.1942 14.7159 5.18513
88 1 -26.3943 14.3096 4.92881
89 1 -26.1286 13.4393 4.71889
90 1 -25.3171 13.9242 4.74668
91 1 -25.3093 13.5732 3.86397
92 1 -24.9054 12.686 3.80419
93 1 -24.3768 12.4706 4.52792
94 1 -23.5751 12.2664 4.99971
95 1 -23.3893 11.759 5.80489
96 1 -24.1674 11.858 6.40149
97 1 -24.6883 12.5991 6.47015
98 1 -24.8013 13.195 7.16704
99 1 -25.1221 12.4096 7.544
100 1 -24.1823 12.4661 7.75333
101 1 -23.696 13.2502 7.73775
102 1 -23.2934 13.6577 8.4668
103 1 -22.8169 13.1476 9.10594
104 1 -22.6361 12.2761 9.49671
105 1 -23.3603 12.5945 9.9835
106 1 -22.5865 12.5884 10.5974
107 1 -22.3042 13.4541 10.5765
108 1 -21.3786 13.6299 10.4994
109 1 -21.0277 13.8009 9.55622
110 1 -21.6966 13.5523 8.95774
111 1 -21.7854 12.6284 8.69658
112 1 -21.117 11.9791 8.85309
113 1 -21.4681 11.2905 8.32114
114 1 -21.8399 10.4218 8.24533
115 1 -22.481 9.78869 8.57912
116 1 -21.7484 9.39051 9.00868
117 1 -21.2218 8.56705 8.65458
118 1 -21.8296 7.88746 8.67777
119 1 -21.8387 7.04411 8.31589
120 1 -21.8102 6.42865 9.01757
121 1 -22.5499 6.02874 9.40952
122 1 -22.5126 5.0936 9.23338
123 1 -23.2332 5.42869 8.65722
124 1 -23.7683 5.12901 7.98272
125 1 -24.1118 5.67157 7.31376
126 1 -24.3901 4.79969 6.97473
127 1 -23.7632 4.53342 6.32896
128 1 -22.8053 4.63269 6.04176
129 1 -22.707 4.55342 5.11147
130 1 -23.57 4.93957 4.98416
131 1 -24.1126 4.24948 4.63622
132 1 -24.0115 3.27752 4.57881
133 1 -24.5871 3.62402 3.8948
134 1 -25.1659 3.04756 3.3102
135 1 -25.9219 3.58435 3.34382
136 1 -25.878 3.08923 2.56021
137 1 -25.9208 3.41379 1.71381
138 1 -25.5513 3.37816 0.878077
139 1 -24.657 3.64027 0.696327
140 1 -23.8661 4.02975 0.950611
141 1 -22.9794 3.64634 1.29188
142 1 -22.7211 4.45278 0.938915
143 1 -23.2308 4.27564 0.112121
144 1 -23.7577 4.04845 -0.639563
145 1 -23.187 3.36867 -0.772618
146 1 -22.7328 3.70578 -1.53125
147 1 -21.8003 3.38787 -1.71047
148 1 -21.1348 3.09359 -1.1345
149 1 -21.1701 2.39951 -1.78929
150 1 -20.5573 1.80837 -1.32907
151 1 -20.5768 0.94294 -0.981085
152 1 -21.4771 0.778426 -0.623774
153 1 -21.3905 0.0787476 0.0486787
154 1 -21.0974 0.79464 0.549499
155 1 -20.7327 0.707972 1.41406
156 1 -20.985 0.199012 2.24423
157 1 -20.9504 -0.77353 1.92991
158 1 -21.0905 -1.71624 1.70226
159 1 -20.5566 -2.525 1.82079
160 1 -20.9551 -2.71348 1.00326
161 1 -20.922 -3.02023 0.149191
162 1 -21.4998 -3.66583 0.403863
163 1 -22.0906 -4.17758 0.881418
164 1 -21.5214 -4.11026 1.60395
165 1 -21.4266 -4.88664 2.16773
166 1 -22.2706 -5.14181 2.57989
167 1 -21.8241 -5.04034 3.37144
168 1 -22.6617 -4.69392 3.61747
169 1 -22.8083 -3.70732 3.59102
170 1 -22.9122 -3.23165 4.41123