ITEM: TIMESTEP
1840000
ITEM: NUMBER OF ATOMS
256
ITEM: BOX BOUNDS mm mm mm
-1.2800000000000000e+02 1.2800000000000000e+02
-1.2800000000000000e+02 1.2800000000000000e+02
-1.2800000000000000e+02 1.2800000000000000e+02
ITEM: ATOMS id type x y z
1 1 -24.3748 6.33613 20.6759
2 1 -23.4292 6.27209 20.6871
3 1 -22.558 6.1216 20.8726
4 1 -21.6669 5.87882 20.6775
5 1 -20.759 5.56807 20.6307
6 1 -20.0447 5.33438 20.0729
7 1 -19.1945 5.14197 19.8754
8 1 -18.3032 5.14831 19.3788
9 1 -17.3447 5.38088 19.3055
10 1 -16.7843 6.02112 19.756
11 1 -15.9288 6.41815 19.9132
12 1 -15.0435 6.52267 19.5606
13 1 -14.2369 6.25672 19.0421
14 1 -13.4242 6.3358 18.5816
15 1 -12.5304 6.11695 18.1743
16 1 -12.0038 5.99875 17.405
17 1 -12.0935 5.57133 16.6026
18 1 -12.1865 5.11508 15.7803
19 1 -12.2522 4.66785 14.9471
20 1 -12.2402 4.22293 14.1545
21 1 -12.3683 4.2132 13.2109
22 1 -12.5936 4.02596 12.3151
23 1 -12.8779 4.05378 11.3908
24 1 -13.0642 4.4651 10.5976
25 1 -13.4116 4.74566 9.80693
26 1 -13.831 4.97683 9.00525
27 1 -13.8956 5.15366 8.06201
28 1 -14.0647 5.14675 7.15888
29 1 -14.216 5.22608 6.17929
30 1 -14.1996 5.23588 5.25516
31 1 -14.2688 5.47443 4.33347
32 1 -14.021 6.1219 3.69582
33 1 -13.4127 6.8331 3.78367
34 1 -12.7778 7.53941 3.82677
35 1 -12.1642 8.19812 3.98718
36 1 -11.6897 9.10289 4.10766
37 1 -11.078 9.72021 3.76634
38 1 -10.3549 10.2222 3.51364
39 1 -9.54181 10.3703 3.05775
40 1 -8.80374 10.3379 2.46457
41 1 -7.90203 10.0932 2.26102
42 1 -7.01887 9.81685 2.32795
43 1 -6.08342 9.53277 2.41606
44 1 -5.12524 9.63251 2.52833
45 1 -4.21298 9.90948 2.5107
46 1 -3.42235 10.3669 2.64187
47 1 -2.71115 10.9755 2.72357
48 1 -2.44095 11.7942 2.49755
49 1 -1.82691 12.55 2.37455
50 1 -1.50466 13.4208 2.08991
51 1 -1.2428 14.2661 1.87488
52 1 -1.16225 15.1508 2.30557
53 1 -0.872333 15.9944 2.54507
54 1 -0.507 16.8245 2.88413
55 1 0.0588616 17.5619 3.22568
56 1 0.457008 18.374 3.28331
57 1 0.77295 19.2621 3.42014
58 1 0.753216 20.1952 3.20849
59 1 0.560952 21.1159 2.95041
60 1 0.148386 21.8927 3.22726
61 1 -0.542824 22.2574 3.71062
62 1 -1.32785 22.7195 3.83332
63 1 -2.05107 23.2426 4.16326
64 1 -2.91447 23.4455 4.46695
65 1 -3.68628 23.224 4.91847
66 1 -4.34805 22.8857 5.53444
67 1 -5.09726 22.7416 6.02688
68 1 -5.91772 22.8193 6.54762
69 1 -6.73065 22.8565 7.01557
70 1 -7.61216 23.0318 7.39597
71 1 -8.3764 23.1636 7.9455
72 1 -9.06018 23.6366 8.35886
73 1 -9.88065 23.9523 8.70958
74 1 -10.7811 23.9789 9.01185
75 1 -11.6555 23.7273 9.27049
76 1 -12.6109 23.7766 9.09093
77 1 -13.4759 23.3652 9.14663
78 1 -14.1478 22.8103 9.46478
79 1 -15.0861 22.5862 9.37671
80 1 -15.8475 22.1559 9.01307
81 1 -16.37 21.3792 8.67829
82 1 -15.921 20.5964 8.93645
83 1 -15.7206 19.847 9.37594
84 1 -15.2022 19.1347 9.71901
85 1 -14.4806 18.5429 9.71271
86 1 -13.7615 17.9855 9.74384
87 1 -12.9921 17.5342 9.52782
88 1 -12.0488 17.2548 9.52712
89 1 -11.3239 16.6974 9.87232
90 1 -10.5437 16.1625 9.88146
91 1 -9.89243 15.5262 9.89849
92 1 -9.24681 14.82 9.81124
93 1 -8.55003 14.3624 9.28874
94 1 -8.24203 14.0807 8.4603
95 1 -7.90195 14.1205 7.54722
96 1 -7.47633 14.17 6.71988
97 1 -7.20275 14.6818 5.89424
98 1 -7.39591 15.2933 5.18031
99 1 -7.54777 15.6847 4.36839
100 1 -7.43279 15.7298 3.45781
101 1 -7.35461 15.8395 2.50264
102 1 -7.33301 15.9877 1.5862
103 1 -6.94554 16.0296 0.720968
104 1 -6.59743 15.8565 -0.155886
105 1 -6.42255 16.0517 -1.04361
106 1 -6.62998 16.4928 -1.82959
107 1 -6.05231 16.6854 -2.55411
108 1 -5.38615 17.0714 -3.12488
109 1 -5.16696 16.9784 -4.07139
110 1 -4.76061 16.7181 -4.83966
111 1 -4.16411 16.316 -5.40924
112 1 -3.61861 15.8382 -6.04468
113 1 -2.9242 15.3718 -6.52995
114 1 -2.18387 15.0309 -7.00221
115 1 -1.69733 14.3361 -7.37003
116 1 -1.04131 13.6759 -7.49555
117 1 -0.472337 12.9021 -7.54669
118 1 -0.0171278 12.1794 -7.8056
119 1 0.427758 11.2913 -7.82171
120 1 0.982765 10.5729 -7.92407
121 1 1.47235 9.69978 -7.87915
122 1 1.61961 8.82435 -7.67256
123 1 1.49544 7.93469 -8.02549
124 1 1.46123 7.1777 -8.70135
125 1 1.45941 6.69408 -9.48112
126 1 1.58246 6.83554 -10.3882
127 1 1.7599 6.88972 -11.2974
128 1 2.06143 6.45263 -12.0942
129 1 2.31543 6.12889 -12.9416
130 1 2.822 5.74057 -13.6534
131 1 3.50682 5.48961 -14.1859
132 1 4.2465 5.83229 -14.6624
133 1 5.12298 6.11971 -14.9213
134 1 6.01718 6.45351 -14.9565
135 1 6.97177 6.69797 -14.9673
136 1 7.78232 7.19704 -15.1076
137 1 8.71829 7.32794 -15.2953
138 1 9.45201 7.77656 -15.7317
139 1 10.149 8.3019 -15.9979
140 1 10.6761 9.01718 -16.2234
141 1 11.2141 9.74005 -16.203
142 1 11.4286 10.6015 -16.4061
143 1 11.508 11.2857 -17.0276
144 1 11.5259 12.06 -17.4979
145 1 11.6909 12.6798 -18.1442
146 1 11.954 13.3774 -18.6811
147 1 12.407 14.0497 -19.1951
148 1 12.9332 14.0947 -19.966
149 1 13.2453 14.2129 -20.8389
150 1 13.4662 14.8151 -21.5189
151 1 13.6429 15.6582 -21.8512
152 1 13.5281 16.5629 -21.9481
153 1 13.2022 17.3721 -22.1872
154 1 12.6453 18.0462 -22.4849
155 1 11.8522 18.5305 -22.4073
156 1 10.9081 18.5426 -22.4739
157 1 9.99191 18.3354 -22.2205
158 1 9.16022 17.9801 -22.021
159 1 8.32405 17.6888 -21.5388
160 1 7.7555 17.6979 -20.7522
161 1 7.43871 17.6258 -19.8555
162 1 7.18456 17.371 -19.0122
163 1 6.49046 17.4415 -18.3755
164 1 5.869 17.1605 -17.7404
165 1 5.28733 16.5238 -17.3133
166 1 4.52835 15.9716 -17.185
167 1 4.10881 15.1226 -16.9506
168 1 4.17 14.1804 -16.9062
169 1 4.01351 13.3037 -16.729
170 1 4.13597 12.3061 -16.7637
171 1 4.19949 11.3748 -16.9206
172 1 4.42004 10.6034 -17.4341
173 1 5.08544 10.2702 -17.9683
174 1 5.83209 9.89186 -18.272
175 1 6.53192 9.28922 -18.4224
176 1 7.23814 8.74549 -18.6822
177 1 8.04307 8.2938 -18.955
178 1 8.95102 7.92464 -19.2237
179 1 9.84364 8.16211 -19.3416
180 1 10.6534 8.04314 -19.8292
181 1 11.4095 7.64209 -20.2405
182 1 12.2579 7.32566 -20.5558
183 1 13.2049 7.15322 -20.68
184 1 14.0605 7.18272 -21.0112
185 1 14.6784 7.84907 -21.1398
186 1 15.042 8.66185 -20.8302
187 1 15.612 9.44502 -20.8449
188 1 16.0532 10.2533 -20.8292
189 1 16.3834 11.0023 -20.3642
190 1 16.8822 11.5333 -19.7759
191 1 17.3411 12.0979 -19.196
192 1 17.7173 12.6858 -18.5745
193 1 18.3818 13.0821 -18.0833
194 1 18.962 13.705 -17.5841
195 1 19.711 13.9764 -17.0791
196 1 20.4369 13.9919 -16.4892
197 1 21.1746 13.7122 -15.9384
198 1 21.9849 13.5644 -15.5375
199 1 22.6593 12.9649 -15.4241
200 1 23.3257 12.2619 -15.2945
201 1 23.9312 11.752 -14.8124
202 1 24.5238 11.2172 -14.2876
203 1 25.1937 10.6166 -13.8735
204 1 25.6993 9.91477 -13.5152
205 1 26.5353 9.54791 -13.3653
206 1 27.3927 9.17729 -13.2858
207 1 28.2565 8.83713 -13.1423
208 1 29.1414 8.47312 -13.0726
209 1 29.8928 7.87964 -13.1801
210 1 30.2526 7.06741 -13.3205
211 1 30.6991 6.23774 -13.4616
212 1 30.7864 5.30799 -13.7068
213 1 31.2105 4.57956 -14.0869
214 1 31.5908 3.84867 -14.5323
215 1 31.7825 3.20084 -15.1466
216 1 31.7515 2.44091 -15.6173
217 1 31.696 1.59475 -16.0073
218 1 31.3839 0.758409 -16.2451
219 1 31.0733 -0.0272853 -16.6165
220 1 30.4988 -0.768141 -16.9323
221 1 30.0853 -1.48689 -17.2587
222 1 29.8932 -2.33398 -17.5159
223 1 29.7818 -3.13272 -17.9859
224 1 29.8818 -4.00864 -18.2773
225 1 29.5495 -4.75518 -18.729
226 1 29.2929 -5.64764 -18.8332
227 1 28.6866 -6.34977 -18.7964
228 1 28.1117 -7.074 -18.7545
229 1 27.4772 -7.74134 -19.0275
230 1 27.1007 -8.5329 -19.4727
231 1 27.0516 -9.44867 -19.6935
232 1 27.1872 -10.3087 -20.0507
233 1 27.3184 -11.1442 -20.4963
234 1 27.415 -12.0024 -20.9177
235 1 27.3974 -12.8499 -21.3282
236 1 27.3074 -13.7364 -21.7511
237 1 27.4693 -14.5114 -22.235
238 1 27.5721 -15.2595 -22.8505
239 1 27.0959 -15.7934 -23.4654
240 1 26.7107 -16.5153 -23.9213
241 1 26.3842 -17.2853 -24.3066
242 1 26.678 -18.1692 -24.6364
243 1 26.844 -19.0152 -24.9461
244 1 27.322 -19.8632 -25.1797
245 1 27.4352 -20.75 -25.4147
246 1 27.2537 -21.5778 -25.8734
247 1 27.017 -22.4427 -26.1632
248 1 26.5775 -23.1777 -26.457
249 1 26.5149 -24.049 -26.824
250 1 26.4476 -24.8494 -27.3741
251 1 26.3668 -25.6279 -27.8575
252 1 26.185 -26.2575 -28.5401
253 1 25.9087 -26.8621 -29.1826
254 1 25.5366 -27.3497 -29.9003
255 1 24.9768 -27.9339 -30.3756
256 1 24.4053 -28.5386 -30.892
ITEM: TIMESTEP
1850000
ITEM: NUMBER OF ATOMS
256
ITEM: BOX BOUNDS mm mm mm
-1.2800000000000000e+02 1.2800000000000000e+02
-1.2800000000000000e+02 1.2800000000000000e+02
-1.2800000000000000e+02 1.2800000000000000e+02
ITEM: ATOMS id type x y z
1 1 -23.6641 11.5945 24.4866
2 1 -23.4834 10.8382 23.9529
3 1 -23.1894 10.1933 23.2966
4 1 -22.9057 9.24959 23.0759
5 1 -22.5564 8.36867 23.0234
6 1 -21.9532 7.66853 22.7162
7 1 -21.2229 7.07283 22.5984
8 1 -20.4688 6.7895 22.1613
9 1 -19.6656 6.72871 21.6788
10 1 -18.742 6.71958 21.5593
11 1 -17.8169 6.9579 21.4664
12 1 -16.8703 6.9441 21.5259
13 1 -15.983 7.0835 21.4429
14 1 -15.106 7.15807 21.2149
15 1 -14.2715 7.45365 20.9084
16 1 -13.603 7.49229 20.229
17 1 -13.2454 7.6878 19.34
18 1 -12.6412 7.99051 18.6416
19 1 -12.21 8.45921 17.9669
20 1 -11.9002 8.43966 17.1012
21 1 -11.7354 8.27011 16.1528
22 1 -11.5882 7.98074 15.2274
23 1 -11.6011 7.64981 14.3248
24 1 -11.7822 7.35439 13.5019
25 1 -11.9124 7.05537 12.6332
26 1 -12.1702 7.22581 11.6715
27 1 -12.204 7.14188 10.7327
28 1 -12.0825 7.45227 9.85273
29 1 -11.9985 8.06703 9.12699
30 1 -11.6042 8.518 8.44544
31 1 -10.9568 8.43708 7.80223
32 1 -10.3199 8.53242 7.12516
33 1 -9.70896 8.60168 6.46389
34 1 -9.1165 8.69375 5.71988
35 1 -8.39502 8.61914 5.1356
36 1 -7.51551 8.77502 4.89075
37 1 -6.78555 9.17766 4.4341
38 1 -6.16763 9.52043 3.86136
39 1 -5.54086 9.89888 3.29986
40 1 -4.90295 10.1043 2.68071
41 1 -4.44781 10.1304 1.80638
42 1 -3.80108 10.1519 1.12228
43 1 -3.4134 10.1131 0.268919
44 1 -2.89995 10.2539 -0.533455
45 1 -2.04169 10.1887 -0.958257
46 1 -1.24406 10.491 -1.47097
47 1 -0.592407 11.0994 -1.72469
48 1 -0.225634 11.9312 -1.87582
49 1 0.146613 12.6878 -2.26025
50 1 0.32875 13.6031 -1.93338
51 1 0.561245 14.347 -1.51869
52 1 0.470763 15.1227 -1.00255
53 1 0.293868 15.9947 -0.63084
54 1 0.45051 16.8837 -0.40706
55 1 0.842777 17.6444 -0.053948
56 1 1.35935 18.4337 0.125114
57 1 1.5598 19.3664 0.0449175
58 1 1.53944 20.3001 -0.113769
59 1 1.32014 21.2102 -0.262473
60 1 1.49094 22.1379 -0.398819
61 1 1.18587 22.9678 -0.131173
62 1 0.953709 23.5045 0.56357
63 1 0.390708 23.7146 1.31421
64 1 -0.302372 23.6377 2.00954
65 1 -0.81695 23.8501 2.79907
66 1 -1.56553 24.1216 3.39657
67 1 -2.36954 24.2667 3.87927
68 1 -3.0662 24.4977 4.51273
69 1 -3.51181 24.5707 5.39682
70 1 -3.79843 24.5168 6.28097
71 1 -4.29659 24.3685 7.10993
72 1 -4.83751 23.9299 7.74355
73 1 -5.22914 23.2827 8.33822
74 1 -5.48802 22.5084 8.75593
75 1 -5.64829 21.7383 9.21749
76 1 -5.89022 20.9346 9.69986
77 1 -6.47926 20.3257 10.0747
78 1 -7.24579 19.936 10.5166
79 1 -7.87732 19.2536 10.581
80 1 -8.25296 18.3656 10.4706
81 1 -8.48017 17.4013 10.3344
82 1 -8.72212 16.5199 10.1437
83 1 -9.0441 15.6256 10.3192
84 1 -9.05608 14.7215 10.3387
85 1 -8.77813 13.8747 10.0921
86 1 -8.33729 13.1759 9.6281
87 1 -7.83859 12.7605 8.94988
88 1 -7.46788 12.6041 8.11424
89 1 -7.19328 12.3581 7.20473
90 1 -7.24012 12.1319 6.27366
91 1 -7.18997 12.2142 5.36951
92 1 -7.0493 12.633 4.5409
93 1 -7.19077 12.9678 3.72924
94 1 -7.52282 13.2353 2.87715
95 1 -7.65369 13.5626 1.98472
96 1 -7.6357 13.8451 1.02634
97 1 -7.34081 14.2546 0.231335
98 1 -7.28628 14.8218 -0.497194
99 1 -7.27769 15.3437 -1.35813
100 1 -7.52224 15.7577 -2.16442
101 1 -7.47961 15.6573 -3.05078
102 1 -7.04606 15.6074 -3.92464
103 1 -6.33624 16.0327 -4.41247
104 1 -5.5984 16.2383 -4.88599
105 1 -4.74747 15.8997 -4.99347
106 1 -4.23185 15.1337 -5.0117
107 1 -3.70272 14.3829 -5.21413
108 1 -3.06939 13.7235 -5.22574
109 1 -2.3398 13.1206 -5.32735
110 1 -1.66703 12.4815 -5.51149
111 1 -0.806385 12.2346 -5.73796
112 1 0.0980615 12.0558 -5.95996
113 1 0.949275 11.9358 -6.38215
114 1 1.5408 11.801 -7.09425
115 1 2.32352 11.7511 -7.60216
116 1 3.09457 12.0029 -8.07511
117 1 3.77822 12.1512 -8.68836
118 1 4.31717 12.0299 -9.45451
119 1 4.37016 11.6767 -10.3209
120 1 4.40226 11.1954 -11.0918
121 1 4.43564 10.6525 -11.8411
122 1 4.54263 10.1728 -12.6571
123 1 4.81608 9.57576 -13.3613
124 1 4.8286 9.22567 -14.1886
125 1 4.79962 9.06338 -15.1387
126 1 4.88176 8.87586 -16.0375
127 1 5.26572 8.77973 -16.9016
128 1 5.44893 8.90211 -17.864
129 1 5.96732 8.38024 -18.4621
130 1 6.60309 8.1598 -19.1241
131 1 7.33429 7.62394 -19.4051
132 1 8.2334 7.30267 -19.4493
133 1 9.04793 6.92459 -19.2327
134 1 9.83453 7.04611 -18.7542
135 1 10.6925 7.35571 -18.6492
136 1 11.5752 7.39782 -18.9398
137 1 12.383 7.35626 -19.4482
138 1 13.1225 7.37294 -19.9661
139 1 13.6858 7.7314 -20.5714
140 1 14.2536 8.35407 -21.1089
141 1 14.6782 9.17448 -21.3304
142 1 14.5135 10.1514 -21.1308
143 1 14.3742 11.0036 -20.729
144 1 14.2648 11.8967 -20.5777
145 1 14.0126 12.7442 -20.3598
146 1 13.3808 13.4187 -20.24
147 1 12.7214 14.088 -20.196
148 1 12.135 14.8325 -20.1482
149 1 11.3932 15.433 -20.2399
150 1 10.6851 15.8397 -20.616
151 1 9.95558 16.4444 -20.5534
152 1 9.36086 17.1878 -20.581
153 1 8.64853 17.762 -20.8579
154 1 7.79917 18.0841 -20.975
155 1 6.98925 18.2149 -21.349
156 1 6.08941 18.228 -21.356
157 1 5.30004 17.7618 -21.2625
158 1 4.5119 17.2719 -21.4565
159 1 3.58675 17.2008 -21.5393
160 1 2.66917 17.037 -21.3131
161 1 1.74359 16.8441 -21.4437
162 1 0.875574 16.6203 -21.6784
163 1 0.135154 16.0293 -21.7495
164 1 -0.301432 15.2244 -21.7042
165 1 -0.703514 14.3758 -21.725
166 1 -0.851889 13.4522 -21.6779
167 1 -1.2384 12.6237 -21.58
168 1 -1.38187 11.6873 -21.8103
169 1 -1.54435 10.7998 -21.5736
170 1 -1.59002 10.132 -20.8652
171 1 -1.27363 9.56569 -20.2289
172 1 -0.388137 9.20471 -19.867
173 1 0.419587 8.9514 -19.4409
174 1 1.18989 8.88747 -18.8892
175 1 2.1122 8.691 -18.9774
176 1 2.95152 8.41842 -19.1107
177 1 3.85412 8.45599 -19.5614
178 1 4.74336 8.45216 -19.9232
179 1 5.65671 8.62524 -20.2483
180 1 6.50849 8.83775 -20.6238
181 1 7.36339 9.0921 -20.9508
182 1 8.13364 9.4238 -21.3071
183 1 9.10455 9.38766 -21.3759
184 1 9.88417 8.8725 -21.3155
185 1 10.697 8.84383 -21.9217
186 1 11.5372 9.08161 -22.2245
187 1 12.3305 9.28745 -22.7351
188 1 13.2374 9.51606 -22.9398
189 1 14.177 9.58628 -23.2152
190 1 15.1117 9.86515 -23.058
191 1 15.8914 10.3794 -22.9605
192 1 16.7616 10.6519 -22.8268
193 1 17.5008 10.737 -22.3015
194 1 18.3518 11.1758 -22.0495
195 1 19.2908 11.1684 -21.7414
196 1 20.0491 11.0841 -21.1863
197 1 20.8725 11.0578 -20.7541
198 1 21.7558 11.0122 -20.3467
199 1 22.3962 10.5068 -19.7737
200 1 23.0091 10.2364 -19.0315
201 1 23.7403 9.81579 -18.6774
202 1 24.05 9.29377 -17.9142
203 1 24.1685 8.51243 -17.1926
204 1 24.5959 7.81116 -16.7037
205 1 25.0471 7.33142 -16.0081
206 1 25.3325 6.81774 -15.2999
207 1 25.9487 6.29228 -14.7885
208 1 26.3748 5.5289 -14.4833
209 1 26.9284 4.83239 -14.2456
210 1 27.2528 3.99329 -14.0233
211 1 27.6921 3.16473 -14.0616
212 1 28.1308 2.34791 -13.869
213 1 28.6842 1.55554 -13.9507
214 1 29.2165 0.825165 -14.164
215 1 29.6101 -0.0332094 -14.0381
216 1 29.7548 -0.96486 -14.1759
217 1 29.2916 -1.63667 -14.6099
218 1 29.0645 -2.4807 -15.051
219 1 28.6077 -3.24298 -15.4439
220 1 27.8674 -3.74547 -15.8112
221 1 27.4569 -4.46135 -16.2858
222 1 26.7279 -4.95766 -16.6287
223 1 25.977 -5.52196 -16.7454
224 1 25.6424 -6.35102 -17.0549
225 1 25.887 -7.22098 -17.3816
226 1 26.4235 -7.97374 -17.6835
227 1 26.8273 -8.78543 -17.8433
228 1 27.133 -9.7304 -18.0274
229 1 27.3506 -10.5845 -18.3367
230 1 28.0031 -11.175 -18.7111
231 1 28.3567 -12.0074 -18.9466
232 1 28.5467 -12.6637 -19.6569
233 1 28.958 -12.9074 -20.4703
234 1 28.9968 -13.461 -21.2229
235 1 28.8263 -13.8794 -22.0703
236 1 28.6427 -14.3331 -22.8776
237 1 28.6022 -15.0593 -23.574
238 1 28.5495 -15.7058 -24.2305
239 1 28.3626 -16.5293 -24.6503
240 1 28.0197 -17.1623 -25.2898
241 1 27.794 -18.0313 -25.5908
242 1 27.51 -18.8765 -25.8367
243 1 27.3809 -19.7851 -25.9647
244 1 27.3013 -20.6697 -26.3107
245 1 27.0556 -21.5354 -26.627
246 1 26.6734 -22.2574 -27.1276
247 1 26.2487 -22.8687 -27.6494
248 1 25.7068 -23.5801 -28.0306
249 1 25.2851 -24.3737 -28.2616
250 1 24.8127 -25.1755 -28.2235
251 1 24.3158 -25.9072 -28.3167
252 1 24.1344 -26.8354 -28.1874
253 1 23.9602 -27.7436 -28.0121
254 1 23.9935 -28.6106 -28.4008
255 1 24.0305 -29.4439 -28.6861
256 1 24.5281 -30.2657 -28.9495
ITEM: TIMESTEP
1860000
ITEM: NUMBER OF ATOMS
256
ITEM: BOX BOUNDS mm mm mm
-1.2800000000000000e+02 1.2800000000000000e+02
-1.2800000000000000e+02 1.2800000000000000e+02
-1.2800000000000000e+02 1.2800000000000000e+02
ITEM: ATOMS id type x y z
1 1 -25.7076 10.6588 29.084
2 1 -24.928 10.0964 28.993
3 1 -24.3694 9.36874 28.7286
4 1 -23.7398 8.9399 28.1184
5 1 -23.2122 8.86936 27.3562
6 1 -22.6134 8.58214 26.6259
7 1 -21.9572 8.30888 26.0133
8 1 -21.3897 8.31006 25.2895
9 1 -20.775 8.3682 24.5384
10 1 -20.1213 8.33803 23.8496
11 1 -19.3898 8.06026 23.2665
12 1 -18.7712 7.69703 22.6471
13 1 -18.1036 7.33276 22.186
14 1 -17.5579 6.97839 21.5073
15 1 -16.8252 7.02676 20.8984
16 1 -16.0874 6.72243 20.3617
17 1 -15.5305 6.44559 19.667
18 1 -14.7388 6.21972 19.1878
19 1 -13.9536 5.93847 18.7216
20 1 -13.1644 5.81303 18.2517
21 1 -12.298 5.71682 17.985
22 1 -11.5064 5.6245 17.5363
23 1 -10.8969 5.6541 16.8077
24 1 -10.4129 5.69034 15.9516
25 1 -10.039 5.43311 15.1227
26 1 -9.99085 5.22224 14.2477
27 1 -9.55846 4.99406 13.3425
28 1 -9.18498 4.80563 12.4563
29 1 -8.67835 4.81015 11.6085
30 1 -8.07189 4.92962 10.857
31 1 -7.45491 5.33729 10.2409
32 1 -6.80727 5.74345 9.69602
33 1 -6.3509 6.3856 9.19568
34 1 -6.03809 7.03352 8.60282
35 1 -5.61551 7.50415 7.93609
36 1 -4.9025 7.92476 7.44417
37 1 -4.33451 8.54551 6.97601
38 1 -3.82387 9.16168 6.38328
39 1 -3.56717 9.89206 5.91241
40 1 -3.54239 10.1777 5.04655
41 1 -3.61892 10.5962 4.22342
42 1 -3.71077 10.8039 3.27799
43 1 -3.7772 10.7438 2.3439
44 1 -3.72755 10.8799 1.44517
45 1 -3.47807 11.1996 0.58571
46 1 -3.34521 11.7345 -0.129498
47 1 -3.19324 12.406 -0.808968
48 1 -2.88766 13.1611 -1.34335
49 1 -2.64248 13.9047 -1.89257
50 1 -2.2744 14.7485 -2.14898
51 1 -1.85454 15.4991 -2.36839
52 1 -1.46575 16.3544 -2.44323
53 1 -1.06056 17.2174 -2.56015
54 1 -0.822186 18.1211 -2.67145
55 1 -0.900523 18.9964 -2.87498
56 1 -0.855753 19.9396 -2.8564
57 1 -0.624083 20.8551 -2.94008
58 1 -0.182398 21.6738 -2.74214
59 1 0.0152696 22.5623 -2.51637
60 1 0.116682 23.3552 -1.98476
61 1 0.331849 23.7939 -1.16361
62 1 0.518944 24.3455 -0.402762
63 1 0.241487 24.6447 0.431939
64 1 0.166713 25.0999 1.2644
65 1 0.146007 25.5787 2.0724
66 1 -0.433191 25.8036 2.7215
67 1 -0.947429 25.9935 3.50264
68 1 -1.38724 25.8076 4.30708
69 1 -1.79895 25.2814 4.93823
70 1 -2.21475 24.6055 5.50326
71 1 -2.60566 24.0447 6.13223
72 1 -3.09174 23.5212 6.75933
73 1 -3.41819 22.7423 7.14866
74 1 -3.83836 22.1157 7.68026
75 1 -4.47352 21.6559 8.18568
76 1 -5.21959 21.4781 8.65834
77 1 -6.06669 21.3415 9.07478
78 1 -6.79594 20.8999 9.41486
79 1 -7.40521 20.2066 9.76105
80 1 -8.03306 19.7806 10.2442
81 1 -8.84181 19.5203 10.6401
82 1 -9.78574 19.5835 10.5595
83 1 -10.6852 19.3836 10.4957
84 1 -11.4392 18.8271 10.5212
85 1 -12.0804 18.4278 9.94889
86 1 -12.7245 17.907 9.45907
87 1 -13.4117 17.9851 8.77743
88 1 -13.8593 18.4747 8.02551
89 1 -14.1291 18.7055 7.1599
90 1 -13.9141 18.6035 6.22813
91 1 -13.3022 18.6949 5.45684
92 1 -13.0756 18.7144 4.57313
93 1 -12.6983 18.6794 3.68227
94 1 -12.0659 18.6506 3.01009
95 1 -11.4325 18.4137 2.39885
96 1 -10.7287 18.5663 1.78862
97 1 -9.99851 18.426 1.18967
98 1 -9.30926 18.2724 0.591245
99 1 -8.4087 18.4681 0.211205
100 1 -7.70773 18.8389 -0.366686
101 1 -6.98285 18.8338 -0.99509
102 1 -6.43177 19.0344 -1.78147
103 1 -6.08469 19.2311 -2.58716
104 1 -5.58155 19.3661 -3.43447
105 1 -4.78889 19.2988 -3.90553
106 1 -3.99965 19.5863 -4.39266
107 1 -3.18128 19.3975 -4.80501
108 1 -2.50276 18.9897 -5.23248
109 1 -1.90244 18.3286 -5.5791
110 1 -1.44099 17.5838 -5.87088
111 1 -0.941514 16.8432 -6.06496
112 1 -0.173165 16.2855 -6.13779
113 1 0.560036 15.6734 -5.99025
114 1 1.17843 14.941 -5.78283
115 1 1.86488 14.2807 -5.92875
116 1 2.50678 13.6115 -5.9612
117 1 2.96428 12.9923 -6.49245
118 1 3.47071 12.299 -6.93162
119 1 3.75935 11.7823 -7.64639
120 1 4.4664 11.1906 -7.88017
121 1 4.82305 10.535 -8.46314
122 1 5.05097 10.3137 -9.36319
123 1 5.42361 9.89396 -10.1554
124 1 5.80544 9.5495 -10.9437
125 1 6.02994 9.41668 -11.9125
126 1 6.58505 9.17719 -12.6441
127 1 7.36473 9.04682 -13.2497
128 1 8.25791 9.18262 -13.5668
129 1 9.02208 9.69139 -13.8432
130 1 9.52958 10.4382 -14.0807
131 1 10.0239 11.175 -13.7599
132 1 10.5626 11.9742 -13.656
133 1 10.5723 12.8212 -14.0062
134 1 10.7708 13.6233 -14.5173
135 1 11.1366 14.2656 -15.095
136 1 11.7588 14.9435 -15.1003
137 1 12.1518 15.7686 -15.2876
138 1 12.5575 16.6039 -15.4383
139 1 12.8389 17.2442 -16.0402
140 1 13.1131 17.9958 -16.4647
141 1 13.2929 18.4435 -17.269
142 1 13.4616 18.8512 -18.1288
143 1 13.5508 19.2494 -18.9758
144 1 13.1966 19.811 -19.6852
145 1 12.8998 20.3785 -20.3831
146 1 12.7255 21.0933 -21.1186
147 1 12.2839 21.7257 -21.6663
148 1 11.7418 22.351 -22.1315
149 1 11.0261 22.9513 -22.3808
150 1 10.3765 23.6344 -22.5033
151 1 9.57505 24.0481 -22.8302
152 1 8.65712 24.1354 -22.9454
153 1 7.70817 23.9681 -23.1137
154 1 6.82659 23.6228 -23.0043
155 1 5.9292 23.4534 -22.7426
156 1 5.08694 23.0631 -22.6546
157 1 4.29594 22.6607 -22.3043
158 1 3.5395 22.1904 -22.0312
159 1 2.71708 21.7046 -21.883
160 1 2.27404 21.1912 -21.2601
161 1 1.94624 20.6478 -20.5624
162 1 1.91073 19.956 -19.9249
163 1 1.91624 19.3068 -19.2759
164 1 1.49412 18.9777 -18.4381
165 1 1.1158 18.5304 -17.7025
166 1 0.499037 17.9771 -17.2723
167 1 -0.132093 17.2016 -17.3647
168 1 -0.458948 16.2359 -17.5578
169 1 -0.718612 15.3575 -17.7155
170 1 -0.902579 14.4318 -17.7028
171 1 -0.581285 13.549 -17.9195
172 1 0.148737 13.1495 -18.3549
173 1 0.983717 12.8288 -18.6197
174 1 1.88122 12.5746 -18.9517
175 1 2.50772 12.001 -19.2975
176 1 3.50102 11.9303 -19.6699
177 1 4.31535 11.9445 -20.2104
178 1 4.87485 12.2134 -20.8646
179 1 5.6494 12.6595 -21.1813
180 1 6.42869 13.0955 -21.4727
181 1 7.2186 13.5798 -21.6238
182 1 7.9216 14.2665 -21.8217
183 1 8.64024 14.891 -21.8129
184 1 9.29105 15.5463 -21.8607
185 1 10.1132 16.0362 -21.7427
186 1 11.0266 16.3055 -21.7843
187 1 11.8517 16.3103 -21.3684
188 1 12.7815 16.2235 -21.13
189 1 13.5728 16.1853 -20.6351
190 1 14.1953 16.0525 -19.9641
191 1 14.5573 16.037 -19.0861
192 1 15.1796 15.5508 -18.5625
193 1 15.8633 15.2128 -18.0277
194 1 16.6793 14.8732 -17.5827
195 1 17.3934 14.4755 -17.1867
196 1 18.221 14.1372 -17.0916
197 1 18.733 13.317 -16.9404
198 1 19.2962 12.5851 -16.8328
199 1 19.9722 11.9696 -16.9311
200 1 20.7959 11.5607 -17.1191
201 1 21.685 11.2449 -17.299
202 1 22.5861 10.8539 -17.1862
203 1 23.3561 10.2986 -16.9732
204 1 24.2529 10.0089 -16.732
205 1 25.0807 9.75281 -16.3484
206 1 25.7535 9.08585 -16.2663
207 1 26.4864 8.48805 -16.3454
208 1 27.2922 8.09291 -16.4451
209 1 28.0789 7.51619 -16.3901
210 1 28.5902 6.70135 -16.1774
211 1 29.0711 5.85791 -16.0303
212 1 29.4381 5.03005 -16.1475
213 1 29.3859 4.14005 -16.3041
214 1 29.6687 3.23727 -16.4331
215 1 29.9053 2.39847 -16.8148
216 1 29.9713 1.51072 -17.1589
217 1 29.8477 0.610351 -17.3921
218 1 29.7176 -0.304143 -17.6993
219 1 29.5915 -1.11127 -18.1998
220 1 29.6881 -2.00081 -18.4216
221 1 29.8601 -2.84884 -18.7934
222 1 29.6696 -3.70863 -19.0712
223 1 29.5515 -4.52045 -19.5033
224 1 29.3046 -5.30748 -20.0209
225 1 29.1088 -5.99313 -20.6065
226 1 29.2859 -6.75047 -21.1603
227 1 29.2201 -7.57942 -21.5347
228 1 29.2198 -8.46301 -21.8226
229 1 29.1445 -9.23588 -22.2878
230 1 29.0711 -9.86827 -22.9742
231 1 28.974 -10.5885 -23.665
232 1 29.0557 -11.3394 -24.2509
233 1 29.1054 -11.9883 -24.9363
234 1 28.9855 -12.6657 -25.6212
235 1 28.8666 -13.5475 -26.1006
236 1 28.3001 -14.3728 -26.1813
237 1 28.0743 -15.2617 -26.305
238 1 27.4073 -15.9186 -26.2179
239 1 26.8968 -16.6714 -26.1061
240 1 26.4958 -17.5095 -25.8994
241 1 26.2519 -18.2391 -25.4025
242 1 25.9073 -19.0973 -25.1534
243 1 25.9555 -20.0279 -25.1971
244 1 26.1019 -20.9743 -25.3824
245 1 26.519 -21.8548 -25.6017
246 1 26.9044 -22.7705 -25.7105
247 1 27.6579 -23.3001 -25.7447
248 1 28.0324 -24.0002 -26.2461
249 1 28.2033 -24.6831 -26.9329
250 1 28.1378 -25.323 -27.588
251 1 27.8367 -25.804 -28.3339
252 1 27.6492 -26.3652 -29.0554
253 1 27.3478 -26.9808 -29.6666
254 1 27.3826 -27.4553 -30.4742
255 1 27.2656 -27.674 -31.3812
256 1 26.9151 -27.7167 -32.2408
ITEM: TIMESTEP
1870000
ITEM: NUMBER OF ATOMS
256
ITEM: BOX BOUNDS mm mm mm
-1.2800000000000000e+02 1.2800000000000000e+02
-1.2800000000000000e+02 1.2800000000000000e+02
-1.2800000000000000e+02 1.2800000000000000e+02
ITEM: ATOMS id type x y z
1 1 -21.3129 11.312 22.2493
2 1 -22.0016 10.7212 22.3972
3 1 -22.5167 9.88104 22.3808
4 1 -22.3651 8.97116 22.5669
5 1 -21.6944 8.3036 22.613
6 1 -21.1618 7.51269 22.4187
7 1 -20.4315 6.94289 22.1703
8 1 -19.6636 6.77005 21.6553
9 1 -19.1143 6.49191 20.9974
10 1 -18.4015 6.0109 20.6503
11 1 -17.6225 5.89046 20.1289
12 1 -17.0178 5.88965 19.4606
13 1 -16.4332 6.2639 18.8329
14 1 -15.7799 6.80874 18.4736
15 1 -14.9764 7.1476 18.0968
16 1 -14.0968 7.21755 17.8868
17 1 -13.1911 7.35445 17.7093
18 1 -12.4244 7.35072 17.186
19 1 -11.7342 7.36508 16.5819
20 1 -11.0169 7.07924 16.0432
21 1 -10.3263 6.56081 15.6233
22 1 -9.47684 6.36511 15.2615
23 1 -8.54788 6.42518 15.0367
24 1 -7.82424 6.68937 14.4535
25 1 -7.24902 6.80391 13.7183
26 1 -6.58056 6.74661 13.0284
27 1 -6.02351 7.02494 12.3217
28 1 -5.38779 7.18281 11.6207
29 1 -4.92927 7.45653 10.8106
30 1 -4.5869 7.80894 9.95413
31 1 -4.05855 8.17252 9.29211
32 1 -3.40403 8.53529 8.78139
33 1 -2.65812 8.80184 8.26976
34 1 -2.23941 9.47437 7.73097
35 1 -1.64734 9.69911 6.98687
36 1 -1.45876 9.69312 6.08641
37 1 -1.23853 10.2325 5.25054
38 1 -0.983655 10.5751 4.40473
39 1 -0.659945 10.9055 3.56304
40 1 -0.594399 10.8887 2.5807
41 1 -0.639849 11.0617 1.66058
42 1 -0.730025 11.3578 0.786583
43 1 -0.557768 11.7415 -0.0809342
44 1 -0.613078 12.2577 -0.928342
45 1 -0.932243 12.8513 -1.56474
46 1 -1.00201 13.5988 -2.13017
47 1 -1.36084 14.0891 -2.86816
48 1 -1.0712 14.6576 -3.64573
49 1 -0.873716 15.4261 -4.12149
50 1 -0.454882 16.0643 -4.62748
51 1 0.0214558 16.7305 -5.07337
52 1 0.784286 17.0896 -5.42368
53 1 1.27437 17.86 -5.62101
54 1 1.44541 18.7478 -5.57562
55 1 1.48236 19.5664 -5.18769
56 1 1.39584 20.394 -4.70554
57 1 1.28283 20.9703 -4.01639
58 1 1.32501 21.7434 -3.50888
59 1 0.906077 22.4201 -2.97926
60 1 0.436624 23.1907 -2.72583
61 1 -0.169919 23.7952 -2.3828
62 1 -0.3977 24.2461 -1.61534
63 1 -0.811841 24.5808 -0.851304
64 1 -1.19501 25.1363 -0.189079
65 1 -1.32938 25.8409 0.452863
66 1 -1.48939 26.3315 1.246
67 1 -2.04746 26.4604 2.03312
68 1 -2.47976 26.588 2.91237
69 1 -2.7674 26.5747 3.84266
70 1 -2.95387 26.317 4.69462
71 1 -3.0427 26.1349 5.63058
72 1 -3.46671 25.5604 6.23472
73 1 -3.97188 24.9733 6.69394
74 1 -4.40976 24.4214 7.32971
75 1 -5.09091 24.151 7.95009
76 1 -5.55356 23.6246 8.52194
77 1 -6.23673 23.0093 8.76413
78 1 -6.75787 22.2676 9.08389
79 1 -7.28016 21.5207 9.05627
80 1 -8.07597 21.1012 8.98902
81 1 -8.96141 20.8088 9.00577
82 1 -9.60152 20.2257 9.3868
83 1 -10.464 19.807 9.23293
84 1 -11.2896 19.6081 8.80856
85 1 -12.092 19.8364 8.31935
86 1 -12.7835 20.1522 7.81015
87 1 -13.2917 20.4183 7.07636
88 1 -13.5208 20.8093 6.28217
89 1 -13.8219 21.1306 5.38594
90 1 -13.9143 21.1788 4.46055
91 1 -13.746 20.9297 3.56386
92 1 -13.2419 20.6907 2.86345
93 1 -12.5486 20.816 2.18765
94 1 -11.8682 21.129 1.54796
95 1 -11.0022 21.4492 1.23542
96 1 -10.1901 21.839 1.04099
97 1 -9.414 21.9928 0.493651
98 1 -8.71009 21.7444 -0.0499633
99 1 -7.85059 21.5394 -0.456504
100 1 -6.98122 21.6356 -0.912772
101 1 -6.42229 22.0238 -1.5461
102 1 -6.04243 22.1285 -2.37405
103 1 -5.7924 21.7337 -3.15855
104 1 -5.26237 21.3061 -3.8113
105 1 -4.83529 20.6512 -4.36666
106 1 -4.38848 19.8981 -4.75091
107 1 -3.97973 19.0397 -4.86906
108 1 -3.71802 18.1727 -5.16554
109 1 -3.31566 17.3867 -5.49751
110 1 -3.03486 16.5479 -5.82608
111 1 -2.89129 15.7105 -6.23378
112 1 -2.6057 14.9028 -6.61235
113 1 -2.17263 14.2269 -7.09474
114 1 -1.64781 13.6766 -7.64254
115 1 -1.22877 13.2281 -8.36183
116 1 -0.856484 12.7048 -9.11518
117 1 -0.12794 12.2644 -9.48015
118 1 0.73422 11.9016 -9.49665
119 1 1.59563 11.547 -9.28687
120 1 2.50039 11.5932 -9.0719
121 1 3.37833 11.8171 -9.02896
122 1 4.03695 12.3943 -9.19753
123 1 4.70311 13.0463 -9.09149
124 1 5.59384 13.3187 -9.11476
125 1 6.51275 13.5395 -9.07042
126 1 7.45275 13.4172 -9.08664
127 1 8.38453 13.3261 -9.46299
128 1 9.24381 13.2482 -9.77196
129 1 9.94792 13.8135 -10.0938
130 1 10.4837 14.0957 -10.7577
131 1 10.5598 14.5796 -11.5498
132 1 10.658 14.9013 -12.4539
133 1 10.7851 15.3402 -13.2606
134 1 10.8956 15.4825 -14.2328
135 1 10.9404 15.6084 -15.1923
136 1 11.0223 16.0591 -15.9753
137 1 10.9949 16.671 -16.7252
138 1 11.0566 17.0899 -17.5732
139 1 10.9545 17.4358 -18.462
140 1 10.9761 17.5807 -19.3833
141 1 10.8063 18.0198 -20.1693
142 1 10.5397 18.6848 -20.7777
143 1 10.053 19.2052 -21.3541
144 1 9.61888 19.8125 -22.0019
145 1 9.15849 20.0114 -22.8092
146 1 8.33197 20.1701 -23.2111
147 1 7.50553 20.3198 -23.6452
148 1 6.78166 20.7652 -24.0699
149 1 6.04762 21.3119 -24.3254
150 1 5.16447 21.5939 -24.4178
151 1 4.61548 22.309 -24.7841
152 1 3.85287 22.9137 -24.8623
153 1 2.95052 23.3201 -24.7487
154 1 2.23056 23.8191 -24.3822
155 1 1.5262 24.2948 -23.9933
156 1 0.775242 24.5652 -23.564
157 1 -0.0965844 24.664 -23.3255
158 1 -0.880885 24.5047 -22.8178
159 1 -1.70291 24.0499 -22.5992
160 1 -2.59062 23.9262 -22.3556
161 1 -3.32781 23.4492 -21.9827
162 1 -3.89273 22.9848 -21.4137
163 1 -4.37733 22.8226 -20.6071
164 1 -4.50731 22.4196 -19.7756
165 1 -4.25828 22.0023 -19.0264
166 1 -3.80743 21.8071 -18.2351
167 1 -3.23053 21.55 -17.5332
168 1 -2.73206 21.0031 -16.9557
169 1 -2.29008 20.3391 -16.4783
170 1 -1.53645 19.6748 -16.4697
171 1 -0.896289 19.0717 -16.6327
172 1 -0.290215 18.4829 -17.1316
173 1 0.248669 17.8348 -17.6389
174 1 0.926832 17.3534 -18.0125
175 1 1.87596 17.161 -18.2838
176 1 2.75937 16.98 -18.5482
177 1 3.49201 16.5317 -18.9258
178 1 4.24793 16.0173 -18.9116
179 1 5.14859 15.591 -19.1054
180 1 6.07193 15.3821 -19.181