ITEM: TIMESTEP
1300000
ITEM: NUMBER OF ATOMS
256
ITEM: BOX BOUNDS mm mm mm
-1.2800000000000000e+02 1.2800000000000000e+02
-1.2800000000000000e+02 1.2800000000000000e+02
-1.2800000000000000e+02 1.2800000000000000e+02
ITEM: ATOMS id type x y z
1 1 -12.1149 -5.07221 8.91001
2 1 -11.3396 -4.44083 8.80913
3 1 -10.4806 -4.51037 8.97754
4 1 -10.6751 -5.10568 9.70841
5 1 -9.82175 -5.5191 9.53712
6 1 -10.1412 -6.43665 9.86203
7 1 -10.8956 -6.98988 9.96362
8 1 -11.4847 -7.43539 10.6242
9 1 -11.8941 -7.42784 11.4729
10 1 -11.6553 -7.6637 12.3485
11 1 -12.2622 -8.35219 12.3723
12 1 -11.888 -9.2186 12.4116
13 1 -11.3289 -9.97693 12.4612
14 1 -11.6155 -10.5957 13.0422
15 1 -11.9115 -10.9486 13.8429
16 1 -11.9199 -10.4164 14.605
17 1 -12.7167 -9.9202 14.8219
18 1 -13.1704 -9.62494 14.0323
19 1 -13.7918 -9.08473 14.4158
20 1 -14.3217 -8.36616 14.3201
21 1 -14.8634 -7.66431 14.0654
22 1 -14.7858 -7.2512 13.2142
23 1 -15.6589 -7.40093 13.1586
24 1 -16.4161 -7.57093 12.6959
25 1 -17.1537 -7.00775 12.5232
26 1 -17.6419 -6.8206 13.2682
27 1 -17.7614 -6.06361 12.716
28 1 -17.9575 -5.18962 12.4396
29 1 -17.3431 -4.68786 12.9752
30 1 -17.0517 -3.98671 13.4469
31 1 -17.7464 -3.37289 13.1578
32 1 -17.1513 -2.66589 13.3944
33 1 -16.3119 -2.59319 13.0645
34 1 -15.5325 -2.59183 12.4737
35 1 -15.0837 -3.1924 11.8771
36 1 -14.4134 -2.57488 11.6677
37 1 -13.7101 -2.00243 11.8135
38 1 -13.1772 -1.33292 12.1947
39 1 -12.3655 -0.894475 12.1973
40 1 -12.9388 -0.563129 12.8467
41 1 -12.5757 0.189583 13.2981
42 1 -12.6149 0.582482 12.4436
43 1 -13.6346 0.519136 12.4951
44 1 -14.1567 0.118994 11.8122
45 1 -14.2963 1.04442 11.6512
46 1 -15.2874 1.19527 11.8275
47 1 -15.9505 1.16306 11.1681
48 1 -16.6786 1.48794 10.6807
49 1 -16.3111 1.82349 9.92312
50 1 -16.2003 1.59459 9.02434
51 1 -16.6797 1.92793 8.3253
52 1 -17.4449 2.16168 8.79696
53 1 -17.4656 1.47858 9.38752
54 1 -18.1784 1.619 10.0602
55 1 -18.6148 2.02053 9.31045
56 1 -18.4696 2.9699 9.5109
57 1 -18.5695 3.73679 10.0409
58 1 -18.7221 4.68025 10.0614
59 1 -18.9354 5.56094 10.0803
60 1 -19.4687 6.16545 10.6326
61 1 -19.8357 6.93883 11.025
62 1 -20.6928 7.31991 11.1871
63 1 -21.1283 7.79301 11.8903
64 1 -20.2802 8.11119 12.2995
65 1 -20.1028 7.98957 13.2036
66 1 -20.4686 8.27792 14.0302
67 1 -20.9789 9.09497 13.9357
68 1 -21.3417 9.92883 13.7338
69 1 -22.0205 10.2975 14.2728
70 1 -22.5237 9.91451 13.5147
71 1 -23.3213 10.1145 13.1015
72 1 -23.1946 10.866 12.534
73 1 -23.4681 11.0233 11.6423
74 1 -22.8345 11.1033 11.0049
75 1 -22.0806 11.2693 11.4956
76 1 -21.2161 10.8762 11.3622
77 1 -20.3975 11.2572 11.3279
78 1 -19.8316 11.8408 10.8634
79 1 -20.0314 11.5234 10.0194
80 1 -20.2201 11.0151 9.27796
81 1 -20.5429 10.7362 8.44942
82 1 -20.4169 10.8859 7.5175
83 1 -20.9342 11.6842 7.52963
84 1 -21.8142 11.5998 7.88962
85 1 -22.6708 12.0281 8.18719
86 1 -22.2263 12.6287 8.73534
87 1 -22.2877 12.388 9.61501
88 1 -22.5983 12.6759 10.4633
89 1 -23.3577 13.1934 10.3831
90 1 -24.0448 13.7886 10.213
91 1 -23.8551 14.6948 9.93909
92 1 -23.2638 15.479 9.77272
93 1 -22.9333 15.5682 10.643
94 1 -22.5587 15.8766 11.4638
95 1 -21.667 15.9449 11.6856
96 1 -21.5951 16.7735 12.037
97 1 -21.7042 17.429 11.3133
98 1 -20.8096 17.6151 11.3712
99 1 -20.3319 17.7389 12.1748
100 1 -19.7168 18.1233 12.7581
101 1 -19.4175 17.6314 13.5008
102 1 -18.7006 17.0285 13.7606
103 1 -18.2654 17.3026 12.9431
104 1 -17.4655 16.9272 12.8384
105 1 -17.7555 16.0325 12.6561
106 1 -18.098 15.2313 12.2156
107 1 -17.3758 14.6236 12.2075
108 1 -17.834 14.6038 13.0327
109 1 -17.9991 14.175 13.8817
110 1 -17.2417 13.6522 14.2528
111 1 -16.3937 13.3719 14.6116
112 1 -16.2512 12.5313 14.9441
113 1 -15.9616 12.2708 14.1109
114 1 -15.6445 11.5685 13.5615
115 1 -14.8084 11.2135 13.7745
116 1 -14.1708 10.786 14.2647
117 1 -13.2771 11.0441 14.0152
118 1 -12.7746 10.3604 14.3903
119 1 -13.4224 10.3238 15.0801
120 1 -14.074 10.7091 15.6609
121 1 -13.8802 10.456 16.574
122 1 -13.0587 9.86912 16.692
123 1 -12.1761 9.67629 16.4747
124 1 -12.0447 9.09217 15.6691
125 1 -12.2031 8.62398 14.891
126 1 -11.9873 7.74321 14.6378
127 1 -11.9555 6.77566 14.6711
128 1 -12.1388 6.38279 15.4962
129 1 -12.9112 6.2909 14.956
130 1 -13.8181 6.04093 15.0724
131 1 -13.5481 5.49115 15.7854
132 1 -13.1752 4.73333 16.3094
133 1 -13.592 3.90273 16.113
134 1 -14.1416 3.21663 15.8613
135 1 -14.5298 2.82109 15.1011
136 1 -14.1801 2.5481 14.2601
137 1 -14.1196 2.01966 13.4064
138 1 -13.8946 1.98269 12.4799
139 1 -13.3704 1.87544 11.6843
140 1 -13.6959 1.78179 10.8093
141 1 -13.4263 0.954069 10.5143
142 1 -12.9091 0.293761 10.0979
143 1 -12.2118 -0.242911 9.88505
144 1 -11.6397 -0.688803 9.26859
145 1 -11.0415 -1.40606 8.94928
146 1 -11.2411 -2.26595 8.52694
147 1 -11.062 -2.91854 7.86666
148 1 -10.9966 -3.87858 7.85927
149 1 -11.1205 -4.69988 7.48741
150 1 -10.3986 -5.28797 7.56715
151 1 -10.3278 -5.51226 6.67412
152 1 -10.5197 -4.60416 6.43016
153 1 -9.92049 -3.91149 6.52071
154 1 -8.97762 -3.76042 6.78879
155 1 -8.14639 -4.03739 6.75295
156 1 -8.16662 -3.14746 6.52083
157 1 -8.85159 -2.62576 6.13999
158 1 -8.28107 -2.74482 5.39537
159 1 -8.09801 -2.08637 4.78151
160 1 -7.49105 -2.34093 4.13484
161 1 -7.28189 -2.70046 3.21355
162 1 -6.47987 -2.90062 2.80179
163 1 -6.02362 -3.60663 2.24747
164 1 -5.34928 -3.64864 1.59285
165 1 -4.74507 -3.57524 0.87755
166 1 -4.80446 -3.00851 0.131541
167 1 -4.33707 -3.67661 -0.252588
168 1 -4.22161 -4.38062 0.325432
169 1 -4.02415 -4.76158 -0.569854
170 1 -4.65759 -4.28985 -1.14228
171 1 -4.62524 -3.46099 -1.58512
172 1 -5.02307 -3.2867 -2.4005
173 1 -4.67149 -2.45573 -2.28333
174 1 -5.50078 -2.48504 -1.81661
175 1 -5.75091 -2.12678 -2.68435
176 1 -5.49896 -2.29821 -3.60897
177 1 -5.29932 -1.9923 -4.46313
178 1 -5.31827 -1.41949 -5.15334
179 1 -5.43083 -1.77568 -6.05203
180 1 -4.80335 -1.09319 -6.03287
181 1 -3.98253 -0.638271 -5.88875
182 1 -3.88179 -1.57433 -5.88782
183 1 -3.72924 -2.00938 -6.73253
184 1 -3.08431 -2.54281 -6.30128
185 1 -3.19453 -3.2386 -6.92937
186 1 -2.47959 -3.90422 -7.04781
187 1 -1.97296 -4.65082 -6.77861
188 1 -2.18054 -5.27644 -6.10091
189 1 -1.56671 -6.00269 -5.82435
190 1 -1.74518 -6.82139 -5.38054
191 1 -1.25184 -7.32697 -4.69867
192 1 -1.55351 -8.27199 -4.55023
193 1 -0.908548 -8.94652 -4.81843
194 1 -0.320394 -9.2616 -4.20712
195 1 -0.176512 -9.05692 -3.24048
196 1 -0.837774 -8.58687 -2.86339
197 1 -1.56414 -8.26192 -2.37492
198 1 -1.76317 -7.42766 -2.07011
199 1 -2.33975 -6.7139 -1.80974
200 1 -1.85289 -5.95802 -2.16911
201 1 -1.36802 -6.36771 -1.53818
202 1 -1.15796 -6.28098 -0.64042
203 1 -0.369139 -5.97906 -0.208912
204 1 0.349447 -5.87543 0.357261
205 1 0.93074 -6.11134 1.04245
206 1 1.07357 -5.52239 1.80623
207 1 0.624628 -4.88575 1.28311
208 1 0.469169 -3.95535 1.49988
209 1 0.937288 -3.3142 2.00598
210 1 0.745512 -2.47808 2.45946
211 1 0.290141 -2.45522 3.28296
212 1 0.709585 -2.07331 3.99068
213 1 1.44701 -2.4118 4.55044
214 1 2.32977 -2.79043 4.70079
215 1 2.82359 -2.22769 5.33486
216 1 2.05147 -2.41835 5.90554
217 1 1.2836 -1.99202 5.61005
218 1 1.33208 -1.21539 5.0961
219 1 1.77264 -0.354608 5.12732
220 1 0.918767 -0.17075 5.41514
221 1 1.10063 0.00427818 6.35704
222 1 0.593356 -0.802298 6.50498
223 1 1.3055 -1.34689 6.847
224 1 0.969372 -1.55568 7.65748
225 1 0.81191 -2.32082 8.12406
226 1 0.568196 -1.6247 8.80327
227 1 0.682885 -1.9555 9.64389
228 1 1.12528 -2.34135 10.3792
229 1 1.61688 -1.85973 11.0365
230 1 1.53455 -1.06328 11.4922
231 1 0.737409 -0.598411 11.7432
232 1 -0.161602 -0.740811 11.9109
233 1 -0.804605 -0.106648 12.3042
234 1 -1.35661 0.486794 12.8206
235 1 -0.908339 1.262 13.0403
236 1 -1.33798 1.94299 13.4632
237 1 -0.860344 2.71101 13.5319
238 1 -0.589432 3.64622 13.7755
239 1 -0.0892335 3.98179 14.4869
240 1 0.206033 4.74344 14.022
241 1 1.08467 4.68712 13.7628
242 1 0.82099 4.43921 12.9536
243 1 0.0490823 4.42586 12.4713
244 1 -0.481333 4.61726 11.75
245 1 -0.0786064 5.16172 11.1177
246 1 0.59014 5.33035 10.4305
247 1 0.901042 6.24455 10.4018
248 1 0.74171 7.20559 10.1423
249 1 0.755165 7.94066 10.7536
250 1 1.1222 8.86885 10.7536
251 1 0.847541 9.32649 11.443
252 1 1.48244 8.91385 11.9755
253 1 0.85059 8.31091 12.208
254 1 0.248179 7.72424 12.6945
255 1 -0.247684 6.93948 12.9957
256 1 -0.307199 6.2792 13.6404
ITEM: TIMESTEP
1310000
ITEM: NUMBER OF ATOMS
256
ITEM: BOX BOUNDS mm mm mm
-1.2800000000000000e+02 1.2800000000000000e+02
-1.2800000000000000e+02 1.2800000000000000e+02
-1.2800000000000000e+02 1.2800000000000000e+02
ITEM: ATOMS id type x y z
1 1 -7.00979 -12.0386 8.86336
2 1 -6.74332 -11.9248 9.7831
3 1 -6.66102 -11.4219 10.6165
4 1 -6.3505 -11.6746 11.4899
5 1 -6.38423 -11.6814 12.4366
6 1 -6.291 -10.774 12.383
7 1 -6.53243 -9.92486 12.6797
8 1 -7.15884 -9.23869 12.7901
9 1 -7.26337 -8.79003 13.5896
10 1 -7.86732 -8.84608 14.3464
11 1 -8.78668 -8.48961 14.2966
12 1 -9.41521 -8.52196 15.0289
13 1 -9.81454 -8.20804 15.8474
14 1 -9.74134 -7.24484 15.9027
15 1 -9.3608 -6.37123 15.7985
16 1 -9.82819 -5.69797 15.3425
17 1 -10.4712 -5.1918 14.9292
18 1 -10.9255 -5.89457 14.487
19 1 -11.539 -6.42111 13.962
20 1 -11.7891 -7.21391 14.3408
21 1 -12.0813 -7.51937 15.1527
22 1 -12.0993 -6.5572 15.358
23 1 -12.5659 -5.79838 15.0175
24 1 -12.9253 -5.77906 14.1324
25 1 -13.3651 -5.5332 13.2939
26 1 -13.3972 -4.60201 13.2257
27 1 -13.3669 -4.95605 12.3165
28 1 -13.7625 -4.1373 12.2803
29 1 -13.4771 -3.41602 11.7681
30 1 -14.2529 -3.35599 11.2496
31 1 -15.12 -3.65078 11.1167
32 1 -15.8322 -3.24998 11.6054
33 1 -16.6647 -2.93567 12.1218
34 1 -17.4481 -2.48024 12.0267
35 1 -17.083 -1.61926 11.7689
36 1 -16.4229 -0.952328 12.1695
37 1 -16.3208 -1.55633 12.9205
38 1 -15.9851 -1.40686 13.7677
39 1 -16.0512 -2.07745 14.4288
40 1 -15.9431 -1.5053 15.1318
41 1 -15.6936 -0.661224 15.4811
42 1 -15.2265 0.144538 15.4053
43 1 -15.6759 0.763968 15.9443
44 1 -15.1235 1.43865 15.6175
45 1 -15.8605 1.98921 15.6873
46 1 -16.5288 2.69349 15.959
47 1 -17.402 2.89198 15.8088
48 1 -17.0183 3.719 15.6678
49 1 -16.5796 4.5162 15.5155
50 1 -16.5523 4.79359 16.4057
51 1 -15.916 5.33493 15.9903
52 1 -15.3806 5.64926 15.3206
53 1 -15.0759 5.53741 14.4673
54 1 -14.9277 5.30892 13.5902
55 1 -15.8437 5.3014 13.2563
56 1 -15.8181 6.22303 13.0854
57 1 -16.0674 6.98597 12.6202
58 1 -15.9658 6.71306 11.7561
59 1 -15.9156 6.47627 10.813
60 1 -16.4549 6.37566 10.0703
61 1 -16.4839 7.32902 10.1952
62 1 -16.4338 8.13816 9.73408
63 1 -17.3215 8.35732 9.6097
64 1 -18.0473 8.39782 10.2332
65 1 -18.5691 8.6711 10.9251
66 1 -18.4783 7.9636 11.5132
67 1 -18.5739 7.52541 12.401
68 1 -17.8489 8.02972 12.7068
69 1 -17.9777 8.65961 12.0153
70 1 -17.8571 9.37778 12.6662
71 1 -17.5263 9.99281 11.988
72 1 -16.5932 10.0152 11.9022
73 1 -16.5568 10.9262 11.9481
74 1 -16.9278 11.6958 12.375
75 1 -16.8396 12.3563 11.7226
76 1 -17.6422 12.4981 11.2824
77 1 -18.3677 12.9146 10.8863
78 1 -18.65 13.4066 10.1436
79 1 -18.8249 12.9325 9.32518
80 1 -17.913 12.8777 9.42729
81 1 -17.1478 12.4932 9.05162
82 1 -17.8004 12.4762 8.36217
83 1 -18.5746 12.007 8.09613
84 1 -18.6527 11.2017 8.49601
85 1 -18.0541 10.5119 8.1568
86 1 -17.1877 10.7671 7.87495
87 1 -16.6479 10.8714 7.09098
88 1 -16.1022 11.4922 6.66625
89 1 -16.2949 10.9171 5.97041
90 1 -16.9704 11.5554 5.89035
91 1 -17.4231 12.3321 6.26874
92 1 -18.3358 12.4878 6.29504
93 1 -18.4194 13.2162 6.99356
94 1 -17.8186 13.8948 6.86067
95 1 -17.402 14.3836 7.52625
96 1 -17.0265 15.0146 8.19195
97 1 -16.8282 15.5741 8.87304
98 1 -16.2372 15.5972 9.57917
99 1 -16.2183 15.9715 10.4594
100 1 -16.5103 15.5962 11.2673
101 1 -16.3572 15.7478 12.1326
102 1 -16.5544 16.2239 12.9083
103 1 -16.2402 15.9516 13.8268
104 1 -15.9729 15.1157 13.5203
105 1 -16.4783 14.3493 13.7851
106 1 -16.4906 13.4691 14.1055
107 1 -17.2437 13.474 14.6637
108 1 -17.8761 13.2199 15.3485
109 1 -17.8094 12.2636 15.4232
110 1 -18.1756 11.4602 15.0607
111 1 -17.3549 10.9837 14.9151
112 1 -16.5862 11.4132 15.1905
113 1 -16.6241 10.7688 15.8621
114 1 -15.9074 10.5206 16.5026
115 1 -15.8446 9.66326 16.6145
116 1 -15.1477 9.5242 17.1964
117 1 -14.7256 9.28541 16.3809
118 1 -15.0891 8.56103 15.8192
119 1 -15.0815 8.79449 14.9291
120 1 -14.6729 8.61155 14.0168
121 1 -13.7357 8.62357 14.0661
122 1 -13.2365 8.29512 13.3035
123 1 -12.6644 7.89459 13.889
124 1 -11.9808 7.33344 14.2639
125 1 -12.0982 6.42335 14.4768
126 1 -11.3866 5.96648 14.0119
127 1 -10.4886 5.75693 13.9237
128 1 -10.61 5.27111 13.1394
129 1 -10.2509 4.56024 12.5644
130 1 -9.48941 3.98544 12.4005
131 1 -8.8818 3.40619 12.0562
132 1 -9.15958 2.52295 12.2557
133 1 -8.9976 2.2299 11.3919
134 1 -9.73913 1.77624 10.9167
135 1 -10.7103 1.85356 10.9484
136 1 -11.1816 2.58611 11.2757
137 1 -11.352 2.53629 10.3731
138 1 -11.3004 3.25211 9.79837
139 1 -10.6678 3.38595 9.10145
140 1 -9.97093 2.73985 9.17432
141 1 -9.45642 3.06053 9.93565
142 1 -9.04617 3.02444 9.05578
143 1 -8.82023 3.35931 8.2015
144 1 -9.73586 3.22281 7.92753
145 1 -9.42237 2.66557 7.21512
146 1 -8.97019 1.91392 6.87648
147 1 -8.56985 2.67822 6.57486
148 1 -7.98235 2.07746 6.01248
149 1 -8.44184 2.72454 5.54725
150 1 -8.64912 1.9386 4.92482
151 1 -9.49171 1.43196 4.9173
152 1 -10.1564 0.913778 5.30656
153 1 -10.435 0.622743 4.41378
154 1 -10.9583 0.223826 3.74574
155 1 -10.8773 0.602849 2.9071
156 1 -10.8319 0.114536 2.15363
157 1 -10.1525 0.266228 1.56478
158 1 -10.2143 -0.666407 1.3543
159 1 -9.58771 -1.30596 1.09801
160 1 -8.77835 -1.01314 1.44075
161 1 -8.71903 -0.132405 1.75076
162 1 -7.76671 -0.339667 1.97949
163 1 -7.17073 -0.966948 2.21305
164 1 -6.67265 -1.66121 2.67035
165 1 -6.97915 -1.99617 1.84889
166 1 -7.57529 -2.4947 1.29694
167 1 -7.9983 -2.58825 0.465876
168 1 -7.42043 -2.29587 -0.228015
169 1 -6.89128 -1.65352 -0.636873
170 1 -7.13073 -2.48137 -1.2389
171 1 -6.70478 -2.82483 -2.05237
172 1 -7.04106 -3.04001 -2.92028
173 1 -6.4944 -3.29289 -3.58959
174 1 -5.77208 -2.92413 -4.01562
175 1 -4.97981 -2.51545 -4.26001
176 1 -4.33151 -1.88901 -4.49572
177 1 -3.59974 -1.78939 -5.08393
178 1 -2.6712 -1.8355 -4.89174
179 1 -1.93408 -2.35905 -4.78071
180 1 -1.90461 -2.75848 -5.65836
181 1 -1.54948 -3.62356 -5.529
182 1 -2.00364 -4.19606 -5.0106
183 1 -1.38362 -4.99253 -5.09639
184 1 -1.15108 -4.82758 -4.21228
185 1 -1.41833 -5.45957 -3.5367
186 1 -1.60877 -4.8225 -2.86008
187 1 -1.71544 -5.55728 -2.23918
188 1 -1.05488 -5.70625 -1.54245
189 1 -0.484481 -5.56875 -0.787611
190 1 -0.00585971 -5.26219 -0.0463133
191 1 -0.709603 -5.67087 0.416001
192 1 -0.64635 -6.59895 0.744555
193 1 -0.883894 -7.28801 0.14217
194 1 -1.06486 -8.19988 0.144111
195 1 -1.58664 -8.68296 0.775451
196 1 -0.916558 -9.2039 1.29935
197 1 -0.022554 -9.34482 0.960611
198 1 -0.431269 -9.78417 0.219153
199 1 -0.301154 -9.88972 -0.692909
200 1 0.210454 -9.39992 -1.34747
201 1 -0.0899627 -8.46507 -1.14684
202 1 -0.142504 -7.65635 -1.59103
203 1 0.156951 -6.89 -1.14516
204 1 0.644181 -6.27134 -0.473884
205 1 0.76276 -5.79911 -1.32019
206 1 0.702117 -4.89645 -1.22506
207 1 0.755336 -3.94675 -1.28611
208 1 -0.128958 -3.90161 -1.56841
209 1 -0.310686 -3.21714 -1.0174
210 1 -0.70185 -3.04142 -0.197023
211 1 -1.15307 -2.30728 0.0891437
212 1 -1.36898 -2.15975 1.0194
213 1 -1.79959 -2.1922 1.7792
214 1 -1.95172 -2.13925 2.746
215 1 -1.3406 -2.31529 3.4247
216 1 -1.68539 -2.15962 4.23867
217 1 -2.22065 -1.82671 4.91017
218 1 -2.65996 -1.33668 5.62041
219 1 -2.31949 -0.887149 6.389
220 1 -3.24488 -0.649167 6.55444
221 1 -3.35035 -1.24465 7.31294
222 1 -3.58064 -0.764568 8.10571
223 1 -4.32373 -1.07674 8.59049
224 1 -4.23463 -0.855295 9.51082
225 1 -3.63932 -0.634565 10.1938
226 1 -3.10533 0.0705198 9.97306
227 1 -2.26415 0.501169 10.1238
228 1 -2.86493 0.871487 10.7082
229 1 -2.08413 0.947941 11.1559
230 1 -1.87798 0.0685608 11.4081
231 1 -1.40828 -0.761152 11.3908
232 1 -0.449988 -0.882869 11.5597
233 1 0.0118586 -0.076734 11.7492
234 1 -0.408429 0.0805755 10.8824
235 1 0.10464 0.847344 10.6906
236 1 0.971286 1.15393 10.641
237 1 1.71686 1.55044 10.3129
238 1 2.51867 2.04324 10.5176
239 1 2.94757 1.8499 11.2844
240 1 3.88138 2.07729 11.302
241 1 4.06003 2.54048 12.0833
242 1 4.31077 1.98526 12.8213
243 1 4.0725 2.45941 13.6088
244 1 4.17077 3.29874 13.194
245 1 3.73929 4.12416 13.3374
246 1 3.38758 4.87132 12.9903
247 1 2.50003 5.25486 12.9328
248 1 1.68355 5.55757 13.2189
249 1 1.64372 6.34927 12.6938
250 1 0.874835 6.69071 12.2303
251 1 0.701636 5.89403 11.6731
252 1 1.21511 5.16253 11.5039
253 1 1.58477 5.16863 10.6506
254 1 2.18018 4.7975 9.99875
255 1 3.10158 5.04443 10.1626
256 1 3.45773 4.99652 9.29836
ITEM: TIMESTEP
1320000
ITEM: NUMBER OF ATOMS
256
ITEM: BOX BOUNDS mm mm mm
-1.2800000000000000e+02 1.2800000000000000e+02
-1.2800000000000000e+02 1.2800000000000000e+02
-1.2800000000000000e+02 1.2800000000000000e+02
ITEM: ATOMS id type x y z
1 1 -10.6847 -2.41015 4.2488
2 1 -10.6376 -2.83929 5.10515
3 1 -11.2825 -3.46896 4.90186
4 1 -11.2647 -4.27114 5.33468
5 1 -11.6004 -4.72876 6.0946
6 1 -11.9868 -5.20706 6.80827
7 1 -12.4872 -4.49138 7.08552
8 1 -13.3958 -4.54169 7.00134
9 1 -14.2583 -4.50696 7.38233
10 1 -14.8345 -4.64959 8.08822
11 1 -15.1131 -5.21735 8.81867
12 1 -15.8782 -5.01324 9.256
13 1 -16.1671 -5.1473 10.1668
14 1 -15.3567 -5.64553 10.3613
15 1 -14.5112 -5.41932 10.618
16 1 -14.0148 -4.70172 10.9647
17 1 -13.3153 -4.91706 10.3606
18 1 -12.9006 -5.35905 11.0677
19 1 -12.7582 -6.31199 11.2103
20 1 -12.3691 -6.01534 11.9761
21 1 -13.0998 -5.41503 12.0853
22 1 -13.0537 -4.67348 12.5958
23 1 -13.4891 -3.99588 13.1197
24 1 -14.2384 -3.40718 12.9284
25 1 -15.1102 -3.54768 13.371
26 1 -15.6314 -2.80374 13.2103
27 1 -16.0875 -2.34103 13.8399
28 1 -16.9989 -2.07108 13.997
29 1 -17.4543 -2.804 13.688
30 1 -18.1761 -3.37732 13.5761
31 1 -19.007 -3.00081 13.8419
32 1 -19.4126 -2.31848 14.2777
33 1 -20.0766 -2.10661 13.7038
34 1 -21.0078 -2.10231 13.5328
35 1 -20.7475 -2.5342 12.7482
36 1 -20.4625 -1.82487 12.2173
37 1 -19.6265 -1.75441 12.7083
38 1 -19.3259 -0.839022 12.8023
39 1 -19.4415 0.0295016 12.4149
40 1 -19.4238 0.916869 12.1855
41 1 -18.9032 1.36715 12.8498
42 1 -18.7224 1.81565 13.6447
43 1 -17.9556 1.91164 13.126
44 1 -17.2979 2.40237 13.5014
45 1 -16.5883 2.1411 12.8343
46 1 -16.9549 1.71535 12.1126
47 1 -17.1982 2.53503 11.7005
48 1 -17.6934 2.97398 11.0545
49 1 -18.3831 2.99105 10.4124
50 1 -18.889 3.40861 11.0902
51 1 -18.2066 4.08669 11.1621
52 1 -17.8151 4.893 11.4321
53 1 -17.2787 5.65515 11.1392
54 1 -16.6293 6.00014 10.5379
55 1 -15.7772 6.21788 10.2732
56 1 -14.903 6.14042 9.92054
57 1 -15.0754 6.94107 9.49209
58 1 -15.4583 7.5483 8.91312
59 1 -16.1976 7.78915 8.42006
60 1 -17.1034 8.071 8.59766
61 1 -17.1842 8.9736 8.70879
62 1 -17.0153 9.08438 7.82717
63 1 -17.5645 9.54069 7.22763
64 1 -17.5896 10.3983 6.86118
65 1 -18.5025 10.6068 6.86716
66 1 -19.1038 11.2095 6.47075
67 1 -18.2928 11.0555 6.0271
68 1 -17.9274 11.5765 6.79266
69 1 -18.6663 11.8413 7.24638
70 1 -19.12 12.43 7.88702
71 1 -19.2597 13.1971 8.42458
72 1 -19.3541 14.0473 8.82065
73 1 -18.501 14.1981 9.21525
74 1 -18.1775 15.0608 9.15349
75 1 -17.4968 15.5985 9.47834
76 1 -16.5908 15.9555 9.74777
77 1 -16.1988 16.219 10.5386
78 1 -16.2653 16.8077 11.2894
79 1 -15.7481 17.4641 10.8992
80 1 -16.0664 18.3215 10.7002
81 1 -15.2439 18.3528 11.1849
82 1 -14.4143 18.203 11.5945
83 1 -13.6178 18.7619 11.7777
84 1 -12.6786 18.9251 11.9036
85 1 -11.9851 19.4072 11.5242
86 1 -11.123 19.6572 11.1901
87 1 -10.9015 19.635 10.3298
88 1 -10.1252 19.1066 10.2776
89 1 -10.3512 18.6278 9.47032
90 1 -10.8739 19.1991 8.98921
91 1 -11.724 18.8135 9.20305
92 1 -12.1872 18.0095 9.10901
93 1 -12.195 17.4349 9.91443
94 1 -11.9653 16.969 10.6699
95 1 -11.9766 16.1549 11.1563
96 1 -11.6547 15.5399 11.7973
97 1 -12.3653 14.9998 11.3631
98 1 -13.2527 14.7757 11.3762
99 1 -14.0537 14.803 10.8703
100 1 -14.9133 14.4212 10.7429
101 1 -14.36 13.7023 10.5566
102 1 -13.6428 13.4909 11.1332
103 1 -13.7181 12.6949 11.6031
104 1 -14.2248 12.0089 12.047
105 1 -15.1446 12.0574 12.3389
106 1 -15.8751 11.7912 11.8217
107 1 -16.7732 11.5935 11.7418
108 1 -17.3446 11.5075 12.4554
109 1 -16.9377 10.7548 12.8698
110 1 -16.8013 10.0253 12.2962
111 1 -17.3172 9.28866 12.0283
112 1 -17.518 8.36459 11.8971
113 1 -16.8891 7.79947 12.226
114 1 -16.0954 7.66795 11.6552
115 1 -15.5635 6.92706 11.2636
116 1 -15.3836 7.04919 12.1902
117 1 -15.5491 7.50381 13.0098
118 1 -14.9999 8.01948 12.461
119 1 -14.5648 7.88953 13.3031
120 1 -13.7882 8.35273 13.3547
121 1 -13.6687 8.60528 12.4989
122 1 -12.9479 9.00758 12.031
123 1 -12.3802 9.52631 11.4286
124 1 -11.6107 10.0486 11.3156
125 1 -10.902 9.43079 11.389
126 1 -10.8345 10.0558 10.6499
127 1 -10.6636 9.2027 10.2258
128 1 -10.0697 9.02948 9.50609
129 1 -9.50218 9.50406 8.92624
130 1 -9.35077 9.41821 7.98736
131 1 -9.97634 9.23598 7.25088
132 1 -10.1565 10.1189 6.89366
133 1 -9.4878 10.4517 6.27266
134 1 -8.50778 10.1609 6.22559
135 1 -7.80322 9.64135 5.91124
136 1 -7.38308 8.80101 5.96801
137 1 -8.00135 8.28994 6.41707
138 1 -7.54108 7.48205 6.60893
139 1 -8.03322 6.90894 6.06703
140 1 -8.40322 6.09328 5.71356
141 1 -9.0846 5.55042 5.34557
142 1 -9.13773 4.76335 4.84768
143 1 -9.52424 3.93814 4.73372
144 1 -9.93815 3.37845 5.41537
145 1 -9.76702 2.49437 5.50051
146 1 -8.99051 2.12738 5.1267
147 1 -8.79357 1.50711 4.42294
148 1 -8.70538 0.571836 4.12148
149 1 -8.54387 0.433838 3.19043
150 1 -9.12698 0.879263 2.52649
151 1 -9.05617 1.68847 2.07531
152 1 -8.27465 1.30995 1.699
153 1 -7.9617 1.93372 1.03209
154 1 -7.78468 2.64833 0.399908
155 1 -8.16995 3.49425 0.688511
156 1 -8.98531 3.76936 1.2262
157 1 -9.37988 3.11821 1.6929
158 1 -9.94116 2.6927 2.27647
159 1 -10.2595 2.81874 3.14228
160 1 -10.0293 1.92204 3.12797
161 1 -9.84403 1.09904 3.48608
162 1 -10.0067 0.199741 3.34816
163 1 -10.3169 -0.540754 2.8921
164 1 -10.1096 -1.32211 2.44661
165 1 -10.0443 -1.73497 1.57112
166 1 -10.1755 -2.6466 1.27361
167 1 -9.87995 -3.43457 1.74729
168 1 -9.54506 -4.14969 1.19764
169 1 -9.59168 -4.38651 0.28401
170 1 -9.04635 -3.98539 -0.411017
171 1 -9.52014 -4.4184 -1.05345
172 1 -10.0689 -3.65303 -0.973583
173 1 -10.6652 -3.47742 -1.65979
174 1 -11.149 -3.77079 -2.42163
175 1 -10.6908 -3.20361 -2.99939
176 1 -10.6073 -3.41647 -3.97068
177 1 -10.2455 -3.34008 -4.84745
178 1 -9.54715 -2.86171 -4.54204
179 1 -8.63477 -2.73331 -4.51217
180 1 -8.03773 -2.92962 -5.19332
181 1 -8.04807 -3.68525 -4.70285
182 1 -7.59982 -4.48891 -4.40357
183 1 -7.58703 -5.34809 -4.00623
184 1 -6.90976 -5.80242 -3.54684
185 1 -6.31701 -5.31667 -4.10586
186 1 -5.44517 -5.31397 -4.40463
187 1 -4.90472 -6.05936 -4.30793
188 1 -4.97242 -6.00678 -3.40828
189 1 -4.37521 -5.78561 -2.67242
190 1 -3.8714 -4.99032 -2.83273
191 1 -3.12651 -5.48304 -3.09346
192 1 -3.11905 -4.95009 -3.89674
193 1 -2.36623 -4.94891 -4.59121
194 1 -1.81243 -4.72002 -3.88438
195 1 -1.23564 -4.31542 -4.50864
196 1 -0.312608 -4.39019 -4.35957
197 1 0.406996 -3.78384 -4.26143
198 1 0.751085 -3.52966 -3.3775
199 1 0.707809 -2.78098 -2.79218
200 1 1.52135 -2.84402 -2.34451
201 1 1.98469 -2.28377 -1.71108
202 1 1.86303 -1.63549 -1.09395
203 1 1.61422 -1.50898 -0.21622
204 1 1.93731 -0.899248 0.400758
205 1 1.387 -0.25575 0.871531
206 1 2.28272 0.0334064 0.952135
207 1 3.05518 0.433622 1.27187
208 1 2.75046 -0.302734 1.79777
209 1 2.0767 -0.64571 2.38944
210 1 1.91336 -0.710178 3.29475
211 1 1.46851 -1.18767 3.99451
212 1 1.48738 -1.34421 4.9694
213 1 1.74408 -2.24769 5.25791
214 1 2.32314 -2.11315 6.02354
215 1 2.10268 -1.5362 6.77584
216 1 2.60838 -0.769759 7.08498
217 1 1.84708 -0.652449 7.72521
218 1 1.00067 -0.888552 8.06035
219 1 1.21224 -1.70627 8.44204
220 1 1.53472 -2.09534 9.24825
221 1 1.93944 -2.92562 9.59602
222 1 2.46105 -3.36473 10.2392
223 1 2.82547 -3.80969 11.026
224 1 3.73899 -3.52667 10.594
225 1 3.933 -2.64344 10.8509
226 1 4.42257 -1.89116 11.0788
227 1 5.10054 -1.46688 10.5551
228 1 4.39688 -0.837625 10.2924
229 1 3.42651 -0.583081 10.2405
230 1 3.18012 0.219908 10.6564
231 1 3.72717 -0.355034 11.1519
232 1 4.39091 0.296466 11.0742
233 1 5.31467 0.297172 10.8016
234 1 6.04654 0.443128 10.2273
235 1 5.22727 0.835316 9.84867
236 1 4.34623 0.738917 9.35914
237 1 4.25302 1.63777 8.99865
238 1 4.41954 2.49268 9.26859
239 1 4.41752 3.36906 8.82732
240 1 4.09427 4.04771 8.25605
241 1 3.74749 4.01166 7.36408
242 1 3.35079 3.54796 6.69159
243 1 2.52119 3.63135 7.05157
244 1 1.90849 2.93095 7.39869
245 1 1.26286 2.79995 6.75712
246 1 0.472267 2.99265 6.32095
247 1 0.49721 3.86745 5.8627
248 1 0.420953 4.75981 5.54532
249 1 0.372099 5.67506 5.66508
250 1 -0.0865281 6.2397 6.22509
251 1 -0.369587 6.30715 7.10812
252 1 -1.20374 6.75599 7.21945
253 1 -0.591381 7.48907 7.06423
254 1 -1.23879 8.1676 7.09202
255 1 -2.10483 8.38525 6.85381
256 1 -1.98138 9.34101 6.92741
ITEM: TIMESTEP
1330000
ITEM: NUMBER OF ATOMS
256
ITEM: BOX BOUNDS mm mm mm
-1.2800000000000000e+02 1.2800000000000000e+02
-1.2800000000000000e+02 1.2800000000000000e+02
-1.2800000000000000e+02 1.2800000000000000e+02
ITEM: ATOMS id type x y z
1 1 -10.047 -4.5846 10.6292
2 1 -10.5316 -5.20584 10.0887
3 1 -11.2294 -4.79084 10.547
4 1 -11.4433 -5.51534 11.0841
5 1 -11.4528 -6.18412 11.7654
6 1 -11.069 -6.43339 12.5534
7 1 -11.0351 -5.74152 13.2439
8 1 -12.0167 -5.78371 13.2136
9 1 -12.824 -5.40853 13.4623
10 1 -13.1325 -5.79134 14.2477
11 1 -13.9708 -5.4029 14.5168
12 1 -14.1903 -5.93956 13.7939
13 1 -14.5101 -6.82379 13.9282
14 1 -15.3007 -6.91078 14.3767
15 1 -16.1091 -7.35045 14.1886
16 1 -17.0047 -7.13911 14.0076
17 1 -17.2828 -7.15601 13.1263
18 1 -17.4053 -6.21439 13.2146
19 1 -17.9772 -5.4317 13.1861
20 1 -18.7663 -4.93943 13.3738
21 1 -18.7218 -4.22191 13.999
22 1 -18.7871 -4.71158 14.807
23 1 -18.3065 -3.91557 14.9429
24 1 -18.4098 -2.94837 15.1227
25 1 -18.0391 -2.17106 14.8301
26 1 -17.353 -1.72514 15.1458
27 1 -17.2637 -1.346 16.0078
28 1 -17.5734 -0.465938 16.022
29 1 -17.9182 -0.223121 16.8077
30 1 -18.008 -0.489163 17.6622
31 1 -17.5517 -0.535709 18.4802
32 1 -16.9674 -1.12499 18.7965
33 1 -16.3016 -0.456517 19.0769
34 1 -15.3395 -0.518558 18.9274
35 1 -15.7992 -0.0778343 18.2072
36 1 -16.048 0.549595 17.5243
37 1 -16.2889 0.371695 16.6428
38 1 -16.8681 1.03686 16.4311
39 1 -17.703 1.32785 16.7995
40 1 -18.24 1.92737 16.3026
41 1 -18.5394 1.9766 15.4257
42 1 -18.3535 2.69835 14.8639
43 1 -18.8572 2.59565 14.1196
44 1 -19.7178 2.29055 14.4219
45 1 -20.3865 2.72961 14.0135
46 1 -20.064 3.58521 13.8595
47 1 -20.599 4.35436 13.7732
48 1 -21.2522 4.70596 13.1569
49 1 -20.3388 4.8195 12.7267
50 1 -20.0878 4.62433 11.8998
51 1 -20.162 4.2413 11.0521
52 1 -19.3185 4.27539 10.7151
53 1 -18.8383 5.04192 10.4855
54 1 -19.3525 5.54169 11.0825
55 1 -19.3523 5.50426 12.035
56 1 -19.1328 6.014 12.7948
57 1 -19.4206 6.83035 13.199
58 1 -19.5449 7.68263 13.5817
59 1 -19.6661 8.38776 13.0406
60 1 -20.1355 9.04906 13.5906
61 1 -19.6603 9.57984 12.9418
62 1 -20.0135 10.2636 13.47
63 1 -19.7775 11.1404 13.2593
64 1 -20.113 11.5722 12.4058
65 1 -20.5644 12.4289 12.1805
66 1 -20.5133 13.2469 12.7064
67 1 -20.2187 13.4187 11.8295
68 1 -19.3882 13.0569 12.0204
69 1 -19.1875 12.2315 11.5334
70 1 -19.4032 12.3184 10.6091
71 1 -19.2085 13.0299 10.0627
72 1 -18.6917 13.616 9.5102
73 1 -18.1725 13.3491 8.78035
74 1 -17.6464 14.1397 8.88193
75 1 -16.9016 14.7155 9.07805
76 1 -16.0786 15.1508 9.24933
77 1 -15.8509 14.5262 9.98848
78 1 -14.9323 14.3687 9.85976
79 1 -14.1031 13.9735 10.0029
80 1 -13.5826 14.1326 10.7391
81 1 -12.7769 14.6501 10.598
82 1 -12.3281 15.4419 10.7801
83 1 -12.5828 15.2126 11.7065
84 1 -12.7732 15.4307 12.5889
85 1 -13.4613 16.0547 12.802
86 1 -13.7523 16.8404 12.3399
87 1 -14.4239 17.2515 12.7608
88 1 -15.2766 17.0506 13.0115
89 1 -15.901 16.7822 13.6498
90 1 -16.0551 16.0206 14.227
91 1 -16.9403 15.778 14.5215
92 1 -16.3874 15.5641 15.2934
93 1 -15.7176 15.5107 15.9488
94 1 -15.8261 15.5673 16.8734
95 1 -16.1416 15.2031 17.674
96 1 -16.002 14.2945 17.7115
97 1 -16.3894 13.48 17.9168
98 1 -17.221 13.3529 17.5313
99 1 -16.951 12.3838 17.4706
100 1 -16.163 11.8228 17.1828
101 1 -15.449 12.3224 16.8895
102 1 -15.098 13.1694 16.6655
103 1 -14.9626 13.5173 15.773
104 1 -14.9431 14.4053 15.4732
105 1 -15.7096 14.3969 14.9029
106 1 -15.2683 14.2206 14.058
107 1 -14.4384 13.8404 13.9882
108 1 -13.8924 14.4816 13.5281
109 1 -13.0226 14.8007 13.9024
110 1 -12.9446 14.107 13.2431
111 1 -13.6242 13.5173 13.0812
112 1 -14.1668 13.1054 12.3947
113 1 -13.4505 12.6634 11.9487
114 1 -13.1905 12.6013 11.0346
115 1 -13.3956 11.703 10.9077
116 1 -13.714 11.0835 10.2578
117 1 -13.8326 10.269 9.7789
118 1 -13.2385 9.5837 9.38568
119 1 -12.5055 9.20816 8.91106
120 1 -12.7468 8.28552 8.97907
121 1 -13.0849 7.70329 8.35509
122 1 -13.3961 6.81408 8.49582
123 1 -12.4639 6.58834 8.68799
124 1 -11.5067 6.56288 8.89496
125 1 -11.8062 6.84578 8.03326
126 1 -11.6384 7.37745 7.31008
127 1 -11.209 7.86181 6.58638
128 1 -10.5004 7.27239 6.168
129 1 -10.3886 6.63865 5.44701
130 1 -10.3345 7.02569 4.59483
131 1 -9.87002 7.8343 4.71609
132 1 -9.45788 7.68852 3.83051
133 1 -8.77796 7.14941 3.31121
134 1 -8.49728 6.2693 3.20121
135 1 -9.42153 6.1493 2.89697
136 1 -10.0525 5.5051 2.62233
137 1 -10.1486 4.59532 2.5535
138 1 -9.90356 3.69454 2.48412
139 1 -9.2705 4.27108 2.93422
140 1 -9.02128 5.15707 2.54374
141 1 -8.15765 5.26971 2.72455
142 1 -7.37764 5.25262 2.26366
143 1 -6.90725 4.51966 1.85627
144 1 -6.7607 3.86602 1.23999
145 1 -6.65354 3.93388 0.320183
146 1 -7.0175 3.60811 -0.522361
147 1 -7.87495 3.35213 -0.198456
148 1 -8.86703 3.16876 -0.180854
149 1 -9.54165 3.29429 -0.921605
150 1 -9.52498 2.39495 -0.987941
151 1 -9.24789 1.47744 -1.28126
152 1 -9.11534 0.856071 -1.98722
153 1 -9.60819 0.0270516 -2.2157
154 1 -8.87517 -0.30906 -1.69931
155 1 -8.19486 -0.696785 -1.13239
156 1 -7.90703 -0.673113 -0.240251
157 1 -8.60143 -0.12696 0.0685795
158 1 -9.54719 -0.0968007 0.130812
159 1 -9.80375 0.281876 0.969365
160 1 -9.97992 -0.383686 1.60752
161 1 -9.78423 0.15123 2.35931
162 1 -9.59454 0.220921 3.2555
163 1 -8.85988 -0.207364 3.83115
164 1 -8.18768 -0.609707 4.32543
165 1 -7.44991 -0.824701 3.69225
166 1 -7.37287 -1.69934 3.33885
167 1 -7.17172 -2.34913 2.69849
168 1 -6.8593 -3.13776 2.40525
169 1 -7.07015 -3.24479 1.49581
170 1 -6.73082 -2.29968 1.44124
171 1 -6.59954 -2.58474 0.537936
172 1 -6.53431 -3.05368 -0.288197