ITEM: TIMESTEP
30000
ITEM: NUMBER OF ATOMS
256
ITEM: BOX BOUNDS mm mm mm
-1.2800000000000000e+02 1.2800000000000000e+02
-1.2800000000000000e+02 1.2800000000000000e+02
-1.2800000000000000e+02 1.2800000000000000e+02
ITEM: ATOMS id type x y z
1 1 -80.9241 -7.47857 -1.19178
2 1 -81.4579 -6.93494 -1.7189
3 1 -82.2705 -6.54205 -1.95055
4 1 -81.7379 -6.18089 -2.63186
5 1 -81.6525 -5.34165 -2.28809
6 1 -81.9465 -4.73831 -1.65054
7 1 -82.9128 -4.75148 -1.59484
8 1 -82.7455 -4.31233 -2.42362
9 1 -82.418 -3.44991 -2.64006
10 1 -83.3344 -3.40262 -2.42344
11 1 -82.8944 -2.55654 -2.58759
12 1 -82.7066 -2.07781 -3.35462
13 1 -81.7593 -1.96688 -3.35018
14 1 -81.8333 -2.48427 -2.59791
15 1 -80.8674 -2.46845 -2.56511
16 1 -80.4761 -3.23453 -2.20187
17 1 -80.1379 -4.05397 -2.5389
18 1 -79.2662 -4.22859 -2.18579
19 1 -79.0019 -4.519 -1.31867
20 1 -78.6137 -5.34869 -1.49326
21 1 -77.7156 -5.44014 -1.83337
22 1 -76.8621 -5.58552 -1.51526
23 1 -76.3964 -5.9076 -0.756605
24 1 -75.8452 -5.4638 -0.0727405
25 1 -75.1459 -5.31569 -0.614328
26 1 -74.1868 -5.19768 -0.605317
27 1 -73.412 -4.6292 -0.708666
28 1 -73.8832 -4.77162 -1.54068
29 1 -74.1071 -4.17963 -2.22299
30 1 -73.5683 -4.13806 -2.9915
31 1 -72.6435 -4.16738 -3.16266
32 1 -71.774 -4.01903 -3.51526
33 1 -71.7046 -3.35825 -4.16604
34 1 -71.029 -2.70884 -4.07175
35 1 -70.1671 -2.8869 -4.34578
36 1 -69.6588 -3.63363 -4.29484
37 1 -68.9823 -3.91292 -3.70297
38 1 -68.1861 -3.46291 -3.5762
39 1 -67.3705 -3.46894 -4.0256
40 1 -66.6051 -3.96169 -3.81738
41 1 -65.7562 -4.22138 -3.58044
42 1 -64.8791 -3.98457 -3.18108
43 1 -64.0942 -4.54475 -3.48121
44 1 -63.2524 -4.17892 -3.73122
45 1 -62.4035 -3.98798 -3.3863
46 1 -61.5269 -4.07614 -3.18252
47 1 -60.5556 -4.33053 -3.27379
48 1 -59.7727 -3.86975 -3.0392
49 1 -58.841 -3.78416 -2.87317
50 1 -57.9511 -3.61674 -3.28022
51 1 -57.0451 -3.39847 -3.09405
52 1 -56.3904 -3.18181 -2.42962
53 1 -55.6843 -3.76209 -2.52087
54 1 -54.9536 -4.07961 -1.98695
55 1 -54.1146 -3.62189 -2.1747
56 1 -53.6152 -4.31821 -1.72993
57 1 -52.9994 -4.29189 -1.00131
58 1 -52.068 -4.13964 -0.575292
59 1 -51.3888 -3.80821 0.0331763
60 1 -50.537 -3.65949 -0.17837
61 1 -49.8651 -4.18776 -0.437749
62 1 -48.8914 -4.33593 -0.216657
63 1 -48.1263 -4.56421 0.258594
64 1 -47.3058 -4.35554 -0.0284795
65 1 -46.7544 -4.94307 0.324915
66 1 -45.8087 -4.89726 0.0101695
67 1 -44.889 -4.91551 -0.15939
68 1 -43.9874 -4.49744 -0.12999
69 1 -43.243 -3.99418 -0.325109
70 1 -42.4339 -3.54658 -0.116476
71 1 -41.7112 -3.75598 0.415042
72 1 -40.9665 -3.90889 -0.0977468
73 1 -40.1025 -4.2378 0.0617311
74 1 -39.7793 -3.76536 0.815221
75 1 -39.3655 -2.93586 0.949534
76 1 -38.4981 -2.58369 0.899984
77 1 -37.7176 -2.01332 1.19324
78 1 -37.2315 -1.24897 0.9665
79 1 -36.8961 -1.87703 0.338158
80 1 -36.0311 -1.47256 0.193479
81 1 -35.0919 -1.40195 0.416646
82 1 -34.2551 -0.993124 0.134183
83 1 -33.4423 -0.634162 0.396282
84 1 -32.7907 -1.27882 0.76966
85 1 -31.9251 -0.998176 0.911074
86 1 -30.92 -1.03234 0.903023
87 1 -30.2535 -0.421278 1.0124
88 1 -29.3922 -0.548067 0.697862
89 1 -28.5366 -0.132324 0.579068
90 1 -27.6597 -0.565277 0.674172
91 1 -26.8465 -0.071211 0.885007
92 1 -25.9068 0.13567 0.69113
93 1 -24.9452 -0.0447464 0.446564
94 1 -24.1456 -0.412348 -0.0119166
95 1 -23.4508 -0.0567878 -0.517565
96 1 -22.7143 0.395391 -0.258748
97 1 -21.7405 0.283628 -0.366123
98 1 -20.9584 0.875259 -0.19491
99 1 -20.0101 0.928152 -0.210767
100 1 -19.2077 1.15907 0.288972
101 1 -18.5957 0.731067 0.760703
102 1 -17.6742 0.886941 0.861712
103 1 -16.8126 0.87427 0.590371
104 1 -15.9558 0.722362 0.910187
105 1 -15.1083 0.362686 0.57451
106 1 -14.3938 0.423797 -0.0183131
107 1 -13.4897 0.396792 0.175869
108 1 -12.8841 0.944755 0.665967
109 1 -11.9711 0.848109 0.634431
110 1 -11.3566 1.48779 0.933066
111 1 -10.4519 1.77208 0.746644
112 1 -9.58022 1.59557 0.530576
113 1 -9.11923 1.20335 -0.160681
114 1 -8.26254 1.27891 -0.530494
115 1 -7.49293 1.19845 -1.05021
116 1 -6.74636 1.27215 -0.498971
117 1 -5.87508 0.952527 -0.0935337
118 1 -5.10049 0.710073 0.455437
119 1 -4.43967 1.34775 0.768365
120 1 -3.58799 1.60291 0.639686
121 1 -2.69627 1.80955 0.333207
122 1 -1.97101 2.30233 0.547242
123 1 -1.0439 2.12319 0.380869
124 1 -0.184604 2.0126 0.701143
125 1 -0.268824 1.22648 0.140514
126 1 0.600976 0.90849 0.339788
127 1 1.12742 1.42919 0.911543
128 1 1.91131 0.907315 0.967288
129 1 2.80483 1.07892 1.0643
130 1 3.41855 1.58253 1.61379
131 1 4.12582 1.68318 0.983409
132 1 5.04117 1.56925 1.20877
133 1 5.90574 1.24647 0.887763
134 1 6.59789 0.651281 0.713145
135 1 7.07476 -0.088029 0.311294
136 1 7.99169 -0.136132 0.327442
137 1 8.875 -0.509865 0.500962
138 1 9.68317 0.0144637 0.580438
139 1 10.5583 -0.363041 0.587543
140 1 11.1907 -0.673453 -0.00885679
141 1 12.1203 -0.640746 0.114761
142 1 12.7523 -0.387912 -0.507056
143 1 13.352 0.22563 -0.116154
144 1 14.2523 -0.0381523 0.15993
145 1 14.8866 0.247789 0.842584
146 1 15.5155 0.955105 1.11101
147 1 16.3275 1.2155 0.690568
148 1 17.0433 1.71431 1.12082
149 1 17.5672 2.22519 1.67515
150 1 18.387 2.56981 1.52821
151 1 19.3438 2.48385 1.47248
152 1 19.7861 2.57583 0.659762
153 1 20.4026 3.09371 0.252225
154 1 21.2069 3.61845 0.32909
155 1 21.359 3.91358 -0.553974
156 1 22.247 4.00766 -0.179994
157 1 23.0985 4.29917 -0.162857
158 1 23.7734 4.51383 -0.798018
159 1 24.6494 4.28975 -0.843988
160 1 25.53 4.67133 -0.931891
161 1 26.2549 5.25928 -0.79509
162 1 27.1215 5.56493 -0.927456
163 1 27.9877 5.1339 -1.00863
164 1 28.2915 4.46155 -0.421594
165 1 29.1415 4.22048 -0.826642
166 1 30.0169 3.86776 -0.728892
167 1 30.8886 3.54564 -0.900689
168 1 31.1414 3.84688 -1.74507
169 1 31.7965 4.13046 -1.07677
170 1 32.6374 4.2404 -1.46058
171 1 33.4519 4.07613 -1.04815
172 1 34.2637 4.42371 -0.738881
173 1 35.1547 4.74693 -0.879534
174 1 35.7145 5.20644 -0.277351
175 1 36.585 5.22655 -0.612563
176 1 37.3013 4.69645 -0.873503
177 1 38.2393 5.0111 -0.817776
178 1 39.001 5.5289 -0.468751
179 1 39.8952 5.26187 -0.548463
180 1 40.2833 5.71311 0.191609
181 1 41.0637 5.90872 0.718075
182 1 41.9239 6.36481 0.788114
183 1 42.6651 6.2045 0.220546
184 1 43.5188 6.59953 0.297674
185 1 44.3841 6.32286 0.400523
186 1 45.2364 6.21918 0.803919
187 1 46.0655 6.31857 0.347841
188 1 46.8759 6.78082 0.343675
189 1 47.8226 6.65478 0.543924
190 1 48.2114 5.84434 0.748357
191 1 48.9878 6.27292 1.03215
192 1 49.72 6.39824 0.475655
193 1 50.7197 6.12793 0.469171
194 1 51.6048 5.99558 0.538809
195 1 52.1711 5.3233 0.136779
196 1 53.0441 5.55833 0.573567
197 1 53.7595 6.00263 0.193799
198 1 54.601 5.76319 -0.189825
199 1 54.7936 5.35935 -1.02797
200 1 55.7302 5.60099 -0.975807
201 1 56.5382 5.43135 -1.43031
202 1 56.1107 5.70183 -2.2275
203 1 56.7985 6.34427 -2.16975
204 1 57.5385 6.13259 -2.72715
205 1 58.238 5.74316 -3.20536
206 1 59.0215 5.55463 -3.6595
207 1 59.6083 4.84566 -3.70539
208 1 60.413 5.45059 -3.64673
209 1 61.1793 5.51657 -2.98819
210 1 62.0508 5.27304 -2.64223
211 1 62.9842 5.31948 -3.0011
212 1 63.847 5.58642 -3.35914
213 1 64.6197 5.36541 -2.98502
214 1 65.1948 5.82124 -2.36494
215 1 66.1153 5.76563 -2.22103
216 1 67.0256 5.7443 -1.94899
217 1 67.8328 6.05635 -2.29042
218 1 68.2829 6.12259 -3.13059
219 1 69.0658 6.46031 -2.68348
220 1 69.9536 6.80077 -2.53036
221 1 70.3767 6.23878 -1.84773
222 1 71.3072 6.21684 -1.7609
223 1 71.7265 6.66058 -2.51986
224 1 72.2897 5.96594 -2.23148
225 1 73.2086 5.89845 -2.15768
226 1 74.1086 5.85235 -2.40649
227 1 74.6957 6.481 -2.09359
228 1 74.9986 6.26995 -2.99339
229 1 75.9009 6.49902 -2.93416
230 1 76.6816 6.9916 -2.73085
231 1 77.3817 7.13205 -3.34473
232 1 78.0947 7.57071 -3.77968
233 1 78.3039 7.61359 -4.7265
234 1 78.7991 6.84456 -4.69173
235 1 79.7641 7.0942 -4.59118
236 1 80.4188 7.03078 -3.96099
237 1 81.3618 7.12857 -4.08215
238 1 82.0479 7.74896 -4.3878
239 1 82.9253 7.40303 -4.61394
240 1 83.2386 7.57257 -3.77171
241 1 84.1718 7.52367 -3.55537
242 1 84.8017 7.30349 -4.19674
243 1 85.2205 7.80246 -4.89252
244 1 85.2616 8.22116 -4.03535
245 1 85.199 8.67023 -3.22351
246 1 85.7714 8.53806 -2.51578
247 1 86.2298 8.75275 -1.6992
248 1 85.5585 9.25112 -1.27177
249 1 85.6279 9.80036 -0.462219
250 1 85.0712 9.24883 0.018526
251 1 85.4739 8.51357 0.579337
252 1 85.9637 9.2759 0.892923
253 1 86.49 9.15209 1.71628
254 1 86.2553 8.82843 2.55914
255 1 86.2662 9.79424 2.6937
256 1 86.1444 10.6807 2.39445
ITEM: TIMESTEP
40000
ITEM: NUMBER OF ATOMS
256
ITEM: BOX BOUNDS mm mm mm
-1.2800000000000000e+02 1.2800000000000000e+02
-1.2800000000000000e+02 1.2800000000000000e+02
-1.2800000000000000e+02 1.2800000000000000e+02
ITEM: ATOMS id type x y z
1 1 -74.551 -6.99715 -3.41054
2 1 -75.3211 -6.64556 -3.86676
3 1 -75.6954 -6.48694 -3.02896
4 1 -75.6012 -5.58701 -3.09163
5 1 -75.8031 -4.63798 -3.15406
6 1 -76.4079 -4.9515 -2.49182
7 1 -76.2604 -4.07417 -2.2725
8 1 -75.769 -4.1706 -1.4794
9 1 -75.0683 -4.85168 -1.41402
10 1 -74.581 -4.99317 -2.24101
11 1 -74.356 -5.41192 -3.057
12 1 -73.8841 -5.4378 -3.85776
13 1 -72.992 -5.20891 -4.15271
14 1 -72.9094 -4.60724 -4.84575
15 1 -73.4012 -3.78113 -4.73105
16 1 -73.7663 -3.21816 -4.03791
17 1 -73.3536 -3.32369 -3.2082
18 1 -72.771 -3.74601 -2.68668
19 1 -72.0543 -4.04587 -2.1732
20 1 -72.1675 -4.56369 -3.00111
21 1 -71.2439 -4.36992 -2.78049
22 1 -70.7946 -4.81048 -3.46265
23 1 -69.9192 -4.62496 -3.64143
24 1 -69.7384 -5.42491 -4.05766
25 1 -69.0443 -5.13902 -4.58913
26 1 -68.8026 -4.60995 -5.26243
27 1 -67.997 -4.23599 -5.01809
28 1 -67.4883 -3.73239 -4.39469
29 1 -66.5825 -3.77105 -4.16842
30 1 -66.0517 -3.75996 -5.01592
31 1 -65.4578 -4.12775 -4.43851
32 1 -64.648 -4.17374 -3.98583
33 1 -64.5578 -3.29811 -4.37027
34 1 -63.6133 -3.48701 -4.20941
35 1 -63.0408 -3.09 -4.8645
36 1 -62.9054 -3.53903 -5.622
37 1 -62.338 -4.36643 -5.40067
38 1 -61.4154 -4.42241 -5.74064
39 1 -60.5071 -4.42037 -5.90077
40 1 -60.2081 -4.2893 -5.03538
41 1 -59.2471 -4.31174 -4.90363
42 1 -58.8503 -5.13706 -4.64847
43 1 -58.7359 -5.0288 -3.70562
44 1 -57.7335 -5.15753 -3.83449
45 1 -57.2008 -5.81757 -3.46216
46 1 -56.2997 -5.93112 -3.72593
47 1 -55.6695 -6.34011 -3.14478
48 1 -54.8054 -6.00115 -3.29501
49 1 -54.2437 -5.9282 -4.04001
50 1 -53.3429 -6.10887 -3.9266
51 1 -52.6583 -5.75164 -3.3999
52 1 -52.3562 -5.07415 -2.79512
53 1 -51.6659 -4.5502 -2.32005
54 1 -50.7284 -4.45706 -2.46458
55 1 -50.4182 -4.96236 -3.21721
56 1 -49.7894 -5.53188 -2.74961
57 1 -49.0412 -4.95631 -2.85948
58 1 -48.2046 -4.50875 -2.91784
59 1 -47.5625 -4.5701 -2.21543
60 1 -47.6478 -4.13214 -1.3424
61 1 -46.7728 -4.11021 -1.39936
62 1 -45.8634 -4.19397 -1.52365
63 1 -45.1118 -3.7558 -1.11433
64 1 -44.5725 -3.03191 -0.777147
65 1 -43.7059 -3.13344 -0.982405
66 1 -42.8453 -3.20746 -1.18148
67 1 -42.1241 -3.89386 -1.23608
68 1 -41.2954 -3.76358 -0.810506
69 1 -40.3486 -3.73017 -0.669581
70 1 -39.8762 -2.97976 -0.317166
71 1 -39.4258 -2.3065 0.12836
72 1 -38.6369 -1.86133 -0.0672934
73 1 -37.8023 -1.62392 0.430311
74 1 -37.1123 -1.7511 1.02856
75 1 -36.1988 -1.51559 0.85368
76 1 -35.5979 -2.16259 0.590334
77 1 -35.1512 -1.40862 0.801619
78 1 -34.382 -1.42674 0.302185
79 1 -33.5831 -1.70777 -0.104676
80 1 -33.2787 -2.44349 -0.685935
81 1 -32.8791 -2.41423 0.151264
82 1 -32.3099 -2.21335 0.892089
83 1 -31.428 -1.86199 0.720016
84 1 -30.7358 -1.47924 1.2941
85 1 -29.7868 -1.16662 1.48188
86 1 -28.8384 -1.4061 1.72865
87 1 -28.8135 -1.41361 2.6474
88 1 -27.8462 -1.50601 2.53193
89 1 -27.7979 -0.558871 2.29037
90 1 -27.1664 -0.184156 2.90816
91 1 -26.2412 0.129295 2.7882
92 1 -25.4954 -0.0866541 3.437
93 1 -24.658 0.312836 3.28626
94 1 -23.7693 0.00474189 3.16688
95 1 -23.2364 -0.287101 2.50866
96 1 -22.3183 -0.0518146 2.7705
97 1 -21.4278 -0.296537 2.52388
98 1 -20.5192 -0.0912809 2.49939
99 1 -20.2951 0.762736 2.7407
100 1 -19.5646 0.132861 2.74058
101 1 -18.6158 0.0820142 2.75831
102 1 -18.4828 0.580217 1.93323
103 1 -17.5744 0.475173 1.65683
104 1 -16.7063 0.511114 1.23836
105 1 -15.9361 0.880407 0.976913
106 1 -15.4246 0.496564 0.360878
107 1 -14.5556 0.695644 0.489877
108 1 -13.8057 1.32305 0.558917
109 1 -12.9976 1.46465 0.994361
110 1 -12.2484 0.904494 1.16477
111 1 -11.343 0.657904 1.14543
112 1 -10.4171 0.529834 1.35223
113 1 -9.5867 0.331293 1.66078
114 1 -9.49579 0.819862 2.45417
115 1 -8.6568 1.02202 2.76065
116 1 -7.92075 1.5267 3.1223
117 1 -7.14269 1.96785 2.94288
118 1 -6.44791 2.21895 2.33989
119 1 -5.95253 2.7899 1.75835
120 1 -5.00144 2.63547 1.60536
121 1 -4.2601 3.219 1.9658
122 1 -4.31282 3.66319 2.73678
123 1 -3.52724 4.07495 2.98499
124 1 -3.00337 3.84313 2.31753
125 1 -2.19535 3.84551 1.88938
126 1 -1.34298 3.92558 2.27617
127 1 -0.787212 3.46537 2.91495
128 1 0.0656793 3.78514 2.59205
129 1 0.542277 4.55435 2.93062
130 1 1.27753 3.91916 3.06083
131 1 2.16891 3.39968 3.09814
132 1 2.79153 2.97217 2.51718
133 1 2.81949 3.08146 1.61108
134 1 3.30177 2.77076 0.914294
135 1 4.05699 2.32509 0.722569
136 1 4.92954 2.03635 0.899496
137 1 5.23302 1.19056 0.508238
138 1 6.16452 1.1144 0.728109
139 1 6.92736 1.38889 1.15017
140 1 7.65473 1.47393 0.530841
141 1 8.58011 1.59542 0.582297
142 1 9.29512 2.18297 0.563917
143 1 10.2189 2.16934 0.710748
144 1 10.2082 2.12908 1.67078
145 1 11.0579 2.53167 1.91461
146 1 11.7959 2.84498 2.35935
147 1 12.6302 2.56125 2.67404
148 1 13.4288 3.07166 2.73999
149 1 14.2502 3.37552 2.98886
150 1 15.0461 3.7804 3.11512
151 1 15.8661 3.9503 2.76834
152 1 16.7343 4.22329 2.34757
153 1 17.6776 4.13807 2.1506
154 1 18.572 4.35304 2.20819
155 1 19.4316 4.26694 1.6606
156 1 20.3985 4.26126 1.80653
157 1 20.9898 4.86916 1.30338
158 1 21.5098 4.09088 1.10723
159 1 21.871 3.2432 1.0222
160 1 22.7767 3.4748 1.09918
161 1 23.6481 3.72168 0.872893
162 1 24.4546 4.0805 1.2798
163 1 25.2968 4.27591 0.902212
164 1 26.239 4.36893 0.923416
165 1 27.1607 4.31061 1.16361
166 1 27.6424 3.69002 0.654837
167 1 28.4275 3.95686 0.178502
168 1 29.3156 3.75948 -0.113227
169 1 29.4648 4.5672 -0.615355
170 1 30.3789 4.81664 -0.880808
171 1 31.3085 4.7348 -1.02154
172 1 31.7212 5.02621 -1.78252
173 1 32.3898 4.31588 -1.6527
174 1 33.1221 4.47097 -2.21642
175 1 33.9914 4.59475 -2.47241
176 1 34.936 4.36426 -2.37958
177 1 35.3373 4.11692 -1.60546
178 1 35.6843 4.91613 -1.35903
179 1 36.5334 4.54311 -1.15222
180 1 37.2108 4.40263 -0.518823
181 1 38.0547 4.71971 -0.904417
182 1 38.7501 5.43243 -0.734404
183 1 38.9735 4.841 -1.46807
184 1 39.5018 5.6284 -1.68534
185 1 40.3906 5.95243 -1.48287
186 1 41.1863 6.16222 -2.1721
187 1 41.8891 6.49658 -2.68508
188 1 42.6568 6.9605 -2.90374
189 1 43.2253 6.9895 -2.17156
190 1 44.0706 6.78102 -1.79204
191 1 45.0252 6.62921 -1.82699
192 1 45.9575 6.84438 -1.67554
193 1 46.9097 6.86774 -1.37254
194 1 47.8158 7.04118 -1.63284
195 1 48.694 6.73897 -1.53817
196 1 49.6357 6.65182 -1.43821
197 1 50.3723 7.16605 -1.77064
198 1 51.0228 7.26831 -1.12217
199 1 51.9435 7.11164 -0.871031
200 1 52.7246 7.504 -0.541091
201 1 53.286 6.71973 -0.431958
202 1 53.6879 5.94679 -0.660325
203 1 54.5731 6.05022 -0.39598
204 1 54.9727 6.85244 -0.689223
205 1 55.9615 6.66065 -0.574999
206 1 56.7287 7.1143 -0.936414
207 1 57.5318 7.43529 -1.21384
208 1 58.3824 7.52383 -0.855924
209 1 59.1098 7.17123 -1.3352
210 1 59.9918 7.43795 -1.05915
211 1 60.6829 8.08114 -0.916898
212 1 61.2906 7.7121 -1.53268
213 1 62.0192 7.2291 -1.15785
214 1 62.5569 6.47458 -1.39308
215 1 63.2681 6.74436 -1.89824
216 1 63.976 6.27208 -2.37859
217 1 63.9281 7.1736 -2.55173
218 1 64.7093 7.62302 -2.8107
219 1 65.3554 8.32433 -2.82277
220 1 66.1249 8.13579 -3.4692
221 1 66.4312 8.75173 -2.81113
222 1 66.7337 9.16109 -2.04185
223 1 66.9627 10.0528 -2.11637
224 1 67.7868 10.1569 -2.65411
225 1 68.0385 9.64137 -3.45309
226 1 68.9734 9.63603 -3.35526
227 1 68.7958 9.85896 -4.20991
228 1 69.4146 10.4949 -4.02093
229 1 70.0296 11.1418 -3.69396
230 1 70.5719 11.643 -4.39865
231 1 71.4594 11.2275 -4.18575
232 1 72.0348 11.3844 -4.91073
233 1 71.92 11.1861 -5.80664
234 1 72.7991 11.5651 -6.01013
235 1 73.4395 12.048 -5.54291
236 1 74.0634 11.4183 -5.71816
237 1 74.6143 11.8495 -6.35383
238 1 75.4725 12.187 -6.2597
239 1 76.0938 11.6082 -5.79249
240 1 76.2598 11.0879 -4.97903
241 1 76.6706 10.4629 -4.43917
242 1 77.3022 9.9326 -4.0333
243 1 77.8614 9.524 -3.40811
244 1 78.6876 9.21426 -3.10986
245 1 79.0861 8.49642 -2.6822
246 1 78.9636 8.73416 -1.7894
247 1 79.5656 9.32226 -2.15251
248 1 79.7101 9.70878 -1.29603
249 1 80.1958 8.98866 -0.957891
250 1 80.4204 9.63978 -0.339738
251 1 80.0993 9.4084 0.534274
252 1 79.1315 9.15579 0.514641
253 1 79.5971 8.37164 0.568653
254 1 80.4815 8.0197 0.664767
255 1 80.0653 7.74276 -0.126071
256 1 79.6249 7.30289 -0.888781
ITEM: TIMESTEP
50000
ITEM: NUMBER OF ATOMS
256
ITEM: BOX BOUNDS mm mm mm
-1.2800000000000000e+02 1.2800000000000000e+02
-1.2800000000000000e+02 1.2800000000000000e+02
-1.2800000000000000e+02 1.2800000000000000e+02
ITEM: ATOMS id type x y z
1 1 -73.231 -9.59521 -7.3494
2 1 -72.7592 -8.78876 -7.55054
3 1 -72.7556 -8.46862 -8.40087
4 1 -72.2701 -7.75091 -8.22067
5 1 -72.782 -7.02134 -8.03436
6 1 -72.7016 -6.07583 -8.18292
7 1 -73.4548 -5.68801 -7.78135
8 1 -73.2808 -4.9753 -7.23002
9 1 -73.399 -4.37523 -6.5172
10 1 -73.8839 -4.69383 -5.78565
11 1 -73.6568 -5.6077 -5.98329
12 1 -72.7875 -5.56855 -6.36745
13 1 -71.8224 -5.7483 -6.27754
14 1 -71.9912 -6.33967 -5.52019
15 1 -72.507 -5.76845 -5.05132
16 1 -71.8889 -5.12276 -4.94544
17 1 -71.6811 -4.28987 -4.52523
18 1 -70.9898 -4.35915 -3.87519
19 1 -70.9354 -4.41381 -2.95019
20 1 -70.5556 -3.65151 -2.62458
21 1 -69.7231 -3.20157 -2.43658
22 1 -69.3825 -4.00645 -2.86907
23 1 -68.5526 -3.89499 -2.40906
24 1 -67.8287 -4.49923 -2.35453
25 1 -66.8637 -4.36521 -2.30022
26 1 -66.3199 -4.64712 -3.07461
27 1 -66.4632 -4.30993 -3.89746
28 1 -65.6094 -4.1266 -3.56928
29 1 -65.3845 -4.02502 -2.64143
30 1 -64.8077 -4.44231 -1.97523
31 1 -64.6303 -4.55829 -1.08308
32 1 -63.9589 -5.0007 -0.498585
33 1 -63.5622 -4.15064 -0.200179
34 1 -62.6429 -4.1099 -0.360943
35 1 -62.0313 -3.9121 -0.996924
36 1 -61.2253 -3.82222 -0.492079
37 1 -60.3599 -3.61392 -0.672096
38 1 -59.6111 -3.7414 -1.26284
39 1 -59.2726 -2.82519 -1.1089
40 1 -58.6275 -2.83323 -0.42805
41 1 -59.2177 -3.26444 0.116139
42 1 -58.8982 -2.41996 0.479396
43 1 -58.0891 -1.96611 0.591025
44 1 -57.3514 -2.59569 0.710183
45 1 -56.6248 -2.14676 0.92287
46 1 -55.7071 -1.88023 0.744708
47 1 -55.1502 -1.24147 1.05432
48 1 -54.4115 -1.64794 0.596302
49 1 -54.1242 -2.48592 0.287191
50 1 -53.3369 -1.94294 0.318836
51 1 -52.4826 -2.17438 -0.00102283
52 1 -51.8623 -1.68942 0.41534
53 1 -51.2469 -1.08284 0.816688
54 1 -50.6192 -1.14032 1.49221
55 1 -49.831 -0.839503 1.08162
56 1 -49.1712 -0.19566 1.35361
57 1 -48.2523 -0.418273 1.56754
58 1 -47.437 -0.826606 1.55961
59 1 -46.5746 -1.2578 1.61819
60 1 -45.6796 -0.888043 1.74848
61 1 -44.8711 -1.31763 1.88295
62 1 -43.9758 -1.00684 1.91757
63 1 -43.0171 -0.976989 2.20399
64 1 -43.2581 -1.86505 2.38647
65 1 -42.7831 -2.66014 2.0948
66 1 -42.039 -2.25595 1.69602
67 1 -41.0918 -2.07559 1.99922
68 1 -40.2097 -1.72983 2.1051
69 1 -39.3664 -1.39752 2.11597
70 1 -38.5283 -1.42431 1.67046
71 1 -38.4784 -1.64968 2.61096
72 1 -37.639 -1.94646 3.01068
73 1 -36.6864 -1.90053 3.04198
74 1 -35.7705 -1.71124 3.03081
75 1 -35.1517 -1.99846 2.3373
76 1 -34.4598 -2.16778 1.77057
77 1 -33.9626 -1.66709 2.51406
78 1 -33.0878 -1.9319 2.36824
79 1 -33.2881 -1.50911 1.50578
80 1 -32.8737 -0.770225 1.91199
81 1 -32.0935 -1.30422 1.94509
82 1 -31.5048 -1.95912 2.23591
83 1 -30.9669 -1.93287 1.48088
84 1 -30.1975 -1.43412 1.43376
85 1 -29.2685 -1.27225 1.72292
86 1 -28.3844 -1.23378 1.49113
87 1 -27.8167 -1.05439 2.20281
88 1 -27.0608 -0.751307 2.64963
89 1 -26.4322 -0.619114 1.98295
90 1 -25.804 -0.652896 2.66294
91 1 -25.3011 -0.0872678 3.22269
92 1 -24.4346 0.120969 3.46524
93 1 -23.5475 0.268077 3.37272
94 1 -23.1889 1.13991 3.14924
95 1 -22.2858 1.10031 2.81785
96 1 -21.8156 0.478069 2.25922
97 1 -21.3827 0.47615 3.08638
98 1 -20.4216 0.598786 2.91834
99 1 -20.6415 1.03538 2.07333
100 1 -19.8627 0.568597 1.87972
101 1 -19.107 0.92729 1.49816
102 1 -18.1951 0.721262 1.72246
103 1 -17.3958 0.615329 2.13392
104 1 -16.4889 0.894427 2.37236
105 1 -15.6736 0.487144 2.34087
106 1 -15.0547 0.582444 3.03242
107 1 -14.3001 0.502185 2.56864
108 1 -13.4513 0.104047 2.57701
109 1 -12.9423 0.848178 2.27228
110 1 -12.0343 0.647641 2.26449
111 1 -11.3021 0.535656 1.68408
112 1 -10.7009 0.942494 1.09516
113 1 -10.2705 1.76438 0.967586
114 1 -9.36395 1.53473 1.23896
115 1 -8.54748 1.69345 0.782488
116 1 -7.62757 1.93977 0.638863
117 1 -6.84048 2.15496 0.229753
118 1 -6.72397 1.23837 0.388212
119 1 -6.12317 0.486091 0.33911
120 1 -5.52342 1.2137 0.577217
121 1 -5.1052 1.62693 -0.157956
122 1 -4.22785 1.68363 0.0573315
123 1 -3.32383 1.49815 0.222528
124 1 -2.58508 1.07944 0.582914
125 1 -1.92456 1.46985 1.12729
126 1 -1.51323 2.0849 0.58366
127 1 -0.703768 1.879 1.03639
128 1 0.161455 1.76359 0.890417
129 1 0.648368 2.45777 0.472853
130 1 1.25073 2.62501 1.15585
131 1 1.49265 3.55911 0.876184
132 1 2.27148 3.52717 0.312251
133 1 3.18675 3.81478 0.240094
134 1 3.58407 4.57856 0.619462
135 1 4.49088 4.31818 0.739297
136 1 4.59376 4.14841 -0.171185
137 1 5.51487 3.92942 -0.0920439
138 1 6.38661 3.53044 -0.0400349
139 1 6.9782 3.03274 -0.692918
140 1 7.68565 2.92306 -1.28151
141 1 8.55595 3.31778 -1.23938
142 1 9.40426 3.66589 -1.43694
143 1 10.1472 4.09498 -1.75234
144 1 10.925 4.53457 -1.58456
145 1 11.7394 4.08415 -1.64684
146 1 12.6661 4.25816 -1.77862
147 1 13.0979 4.9271 -2.19747
148 1 13.9307 5.08804 -2.56851
149 1 14.4937 5.22931 -1.80344
150 1 15.3166 5.57751 -2.19778
151 1 16.2333 5.70189 -2.10592
152 1 16.8976 6.29045 -2.44541
153 1 17.7738 6.67188 -2.45151
154 1 18.2673 7.26136 -3.10403
155 1 19.1089 7.52628 -3.33274
156 1 19.4666 7.63419 -2.44182
157 1 20.3153 7.91929 -2.1798
158 1 21.1868 7.86352 -2.53709
159 1 21.9274 7.44504 -2.13255
160 1 22.7682 7.30778 -1.67179
161 1 23.4916 7.88839 -1.66939
162 1 24.2948 8.08066 -1.20257
163 1 24.5675 8.9384 -0.850614
164 1 25.4201 8.80465 -1.12362
165 1 26.2382 8.59836 -0.777534
166 1 27.0854 9.03242 -1.17502
167 1 27.9901 9.29084 -1.42326
168 1 28.6813 8.88925 -0.880293
169 1 29.5481 8.58832 -1.08784
170 1 30.302 8.03548 -1.00564
171 1 31.2276 7.93609 -1.21928
172 1 31.9867 7.72457 -1.75245
173 1 32.2109 6.82113 -1.67707
174 1 32.7603 7.50543 -1.19042
175 1 33.5596 7.43254 -0.700037
176 1 34.4184 7.08699 -0.931573
177 1 35.3379 7.2527 -0.969031
178 1 36.2435 7.18723 -1.1207
179 1 36.8453 6.60603 -0.652039
180 1 37.7516 6.57088 -0.90897
181 1 38.4342 7.20179 -0.836584
182 1 39.1686 6.90133 -0.244917
183 1 39.1687 6.2116 -0.933177
184 1 39.7967 6.08104 -1.64045
185 1 40.6037 5.51589 -1.71424
186 1 41.3792 5.03452 -1.64016
187 1 42.1172 4.86123 -2.12682
188 1 43.0842 4.75994 -2.30178
189 1 43.3905 3.93329 -2.68941
190 1 44.1545 4.20338 -2.1836
191 1 45.0351 3.86047 -2.1314
192 1 45.8219 4.3201 -2.02797
193 1 46.5155 4.39178 -2.67469
194 1 47.1678 4.31538 -3.38385
195 1 47.348 5.08317 -2.99867
196 1 47.9844 5.14284 -3.73817
197 1 48.6744 5.66098 -3.27462
198 1 48.6458 6.55977 -3.27309
199 1 49.2538 6.4989 -3.98178
200 1 50.0433 6.65638 -4.40568
201 1 50.5129 6.07904 -4.97815
202 1 50.6408 5.30073 -4.48489
203 1 51.5701 5.52473 -4.28644
204 1 52.4917 5.40356 -4.48477
205 1 53.1209 6.0091 -4.29647
206 1 53.4653 6.18045 -5.0934
207 1 54.1724 6.79956 -4.80395
208 1 54.8155 6.11155 -4.68146
209 1 55.6485 5.62654 -4.72573
210 1 56.167 4.91206 -4.3384
211 1 57.0983 5.07586 -4.45259
212 1 57.9889 4.91232 -4.72264
213 1 58.7555 4.55617 -4.99321
214 1 59.3339 3.89626 -4.60676
215 1 60.0683 4.44159 -4.85121
216 1 60.2095 5.36058 -5.15749
217 1 59.7109 5.47475 -5.93941
218 1 60.4164 6.05704 -6.06977
219 1 60.6834 6.37557 -5.2027
220 1 61.2553 6.26746 -4.4851
221 1 62.1322 5.94003 -4.43753
222 1 62.9764 5.93171 -3.92013
223 1 63.523 6.66885 -3.96729
224 1 64.3605 6.86659 -3.52115
225 1 64.6117 6.03711 -3.82989
226 1 64.662 5.41469 -3.12363
227 1 65.4778 5.97159 -2.99427
228 1 65.9488 5.74028 -2.24785
229 1 66.7946 6.06001 -2.08321
230 1 67.5038 6.38758 -2.52357
231 1 68.3129 6.89796 -2.38406
232 1 68.4638 7.73472 -2.83037
233 1 68.9098 8.3605 -3.24184
234 1 68.5054 9.08847 -3.70029
235 1 69.3879 9.38782 -3.70479
236 1 68.7129 10.0372 -3.93732
237 1 68.8775 10.1703 -3.05318
238 1 69.7439 9.79753 -2.77432
239 1 70.2796 10.3218 -2.07973
240 1 70.1426 11.3135 -1.91886
241 1 70.7482 11.4299 -2.63191
242 1 71.6646 11.7549 -2.51133
243 1 72.0975 12.3535 -3.08496
244 1 72.396 12.6574 -2.29434
245 1 71.911 13.3317 -2.72339
246 1 72.1577 13.9889 -3.32857
247 1 73.0661 13.9521 -3.08539
248 1 73.8879 13.5203 -3.3357
249 1 74.782 13.5432 -3.04783
250 1 75.3451 13.6546 -2.31897
251 1 76.1415 13.8178 -2.86804
252 1 76.5668 13.3823 -2.16626
253 1 77.425 13.4549 -2.62583
254 1 77.9389 12.6967 -2.28798
255 1 77.3819 12.9012 -1.58165
256 1 76.8299 12.1974 -1.49492
ITEM: TIMESTEP
60000
ITEM: NUMBER OF ATOMS
256
ITEM: BOX BOUNDS mm mm mm
-1.2800000000000000e+02 1.2800000000000000e+02
-1.2800000000000000e+02 1.2800000000000000e+02
-1.2800000000000000e+02 1.2800000000000000e+02
ITEM: ATOMS id type x y z
1 1 -69.1518 -4.67557 -4.55702
2 1 -69.4881 -3.85943 -4.21178
3 1 -69.0354 -4.1517 -3.37691
4 1 -69.7548 -4.37482 -2.76258
5 1 -70.073 -4.10622 -1.87521
6 1 -69.9061 -4.02886 -0.964686
7 1 -69.0538 -4.37121 -0.992026
8 1 -68.3882 -4.60765 -1.60883
9 1 -67.8096 -4.97928 -2.33558
10 1 -67.332 -5.63678 -1.79248
11 1 -67.2505 -6.2578 -2.50926
12 1 -66.477 -6.3469 -2.99074
13 1 -66.0303 -6.61651 -3.74657
14 1 -66.2926 -5.81989 -4.07306
15 1 -66.2535 -4.93208 -3.76957
16 1 -66.0007 -4.11101 -4.13006
17 1 -65.7602 -3.98185 -5.10175
18 1 -65.0442 -3.52162 -5.52898
19 1 -64.1803 -3.82662 -5.88394
20 1 -63.85 -4.38713 -5.17955
21 1 -63.7776 -4.19628 -4.28661
22 1 -63.4193 -4.3839 -3.46869
23 1 -62.5373 -4.44471 -3.14591
24 1 -61.9293 -4.105 -2.55155
25 1 -61.2075 -4.55887 -2.06325
26 1 -60.856 -3.76377 -1.7442
27 1 -60.2092 -3.12319 -2.19307
28 1 -59.4325 -2.91169 -1.74136
29 1 -58.9985 -3.14169 -2.55929
30 1 -58.4948 -3.80826 -2.20605
31 1 -57.6547 -3.81118 -2.63759
32 1 -56.7234 -3.97896 -2.5065
33 1 -56.1567 -4.05267 -1.75587
34 1 -55.8975 -3.25117 -2.10187
35 1 -55.3139 -2.77928 -2.70071
36 1 -54.6007 -2.44738 -2.15696
37 1 -54.171 -2.60398 -1.30917
38 1 -53.8737 -2.30064 -0.356178
39 1 -53.1562 -2.89122 -0.215995
40 1 -52.699 -2.46853 0.474498
41 1 -51.848 -2.75422 0.778501
42 1 -51.5592 -2.36439 1.59348
43 1 -51.1323 -1.62501 1.1556
44 1 -50.5158 -1.99918 0.582577
45 1 -49.8599 -2.39468 1.11251
46 1 -49.7688 -2.67021 2.01806
47 1 -49.1362 -2.61786 2.68414
48 1 -48.4036 -2.08034 2.6791
49 1 -47.596 -1.73387 3.09255
50 1 -46.6427 -1.79342 2.83874
51 1 -46.1311 -2.30348 2.18385
52 1 -45.3892 -1.80083 1.98171
53 1 -44.9112 -1.18267 2.57094
54 1 -45.3833 -1.03981 3.37326
55 1 -45.2949 -0.126729 3.41005
56 1 -44.4119 -0.176935 3.07837
57 1 -43.4819 -0.00452624 2.848
58 1 -42.787 -0.466556 3.3239
59 1 -42.5751 -0.844553 2.50687
60 1 -42.0355 -1.30491 3.1755
61 1 -41.2836 -0.80538 2.9485
62 1 -40.4329 -0.737849 3.31909
63 1 -39.8339 -0.0909225 3.60911
64 1 -38.9906 0.457337 3.53142
65 1 -38.0782 0.568771 3.93743
66 1 -37.147 0.559769 3.89558
67 1 -36.524 1.0901 3.40522
68 1 -35.6761 0.650681 3.5479
69 1 -35.2697 -0.0547458 4.00506
70 1 -34.5527 -0.536285 4.39203
71 1 -33.6175 -0.274439 4.52152
72 1 -33.1344 0.166686 3.84376
73 1 -32.2249 0.390031 3.71297
74 1 -31.4159 0.0558468 4.05117
75 1 -31.5618 -0.471221 3.25634
76 1 -30.9398 -0.321777 2.45375
77 1 -30.4524 0.0944362 1.72704
78 1 -29.5403 0.492515 1.87557
79 1 -29.0403 1.15208 1.45363
80 1 -28.4317 1.25641 0.754781
81 1 -27.4961 1.36281 0.916665
82 1 -26.8522 2.04525 0.881701
83 1 -26.1038 1.76813 0.432825
84 1 -25.3928 2.19851 0.919469
85 1 -25.7244 1.80171 1.64944
86 1 -25.9214 0.975215 1.19882
87 1 -25.0304 0.787813 1.48598
88 1 -24.4235 0.58664 0.810375
89 1 -23.7779 1.22884 0.740968
90 1 -23.5906 1.93112 0.120607
91 1 -23.0939 1.13099 -0.102362
92 1 -22.2962 0.860759 0.414313
93 1 -21.6347 1.54505 0.4705
94 1 -21.04 1.30105 -0.275709
95 1 -21.1843 1.07471 -1.14643
96 1 -20.7107 0.572656 -1.74883
97 1 -20.1536 0.00615722 -2.2611
98 1 -19.1911 -0.0922175 -2.38668
99 1 -18.7504 0.695344 -2.17136
100 1 -17.7975 0.693591 -2.31066
101 1 -17.2615 1.17251 -1.72422
102 1 -16.4412 0.777699 -1.95427
103 1 -15.4082 0.563866 -1.97782
104 1 -14.7085 0.574806 -1.41454
105 1 -13.9232 0.549575 -1.91589
106 1 -13.4809 0.543004 -1.06131
107 1 -13.0368 1.31319 -1.26692
108 1 -12.2457 1.74942 -1.57915
109 1 -11.5712 1.17474 -1.94925
110 1 -11.0494 0.423012 -1.87965
111 1 -10.2048 0.0709669 -1.86328
112 1 -9.8384 0.851772 -1.46186
113 1 -9.17373 1.28118 -0.978752
114 1 -8.236 1.48608 -0.971561
115 1 -7.69512 2.27292 -0.833888
116 1 -6.93885 2.79133 -0.685643
117 1 -6.20871 2.71371 0.0041653
118 1 -6.07967 2.31032 -0.861523
119 1 -5.19885 2.43533 -1.21707
120 1 -4.25361 2.62622 -1.1252
121 1 -3.43405 2.99499 -1.57204
122 1 -2.81125 3.49895 -2.06809
123 1 -2.04278 3.17739 -2.40784
124 1 -1.32028 3.72865 -2.45567
125 1 -0.432427 3.41545 -2.37196
126 1 0.237296 2.87206 -2.71818
127 1 0.719407 2.99069 -1.98976
128 1 1.6539 2.88055 -2.15981
129 1 2.54157 3.08385 -1.89669
130 1 3.26245 3.64153 -1.62597
131 1 4.14293 4.05409 -1.46953
132 1 4.86517 3.59583 -1.05056
133 1 5.62355 3.71853 -0.477076
134 1 6.33445 4.33628 -0.396486
135 1 6.99837 4.60813 0.243844
136 1 7.67156 5.24282 0.335136
137 1 8.5108 4.89015 0.0523218
138 1 9.47332 4.73424 0.0639835
139 1 10.169 4.04961 0.112174
140 1 10.7525 3.95188 -0.632873
141 1 11.6108 3.9649 -1.06489
142 1 12.367 3.40795 -1.29768
143 1 12.7534 3.59613 -0.470971
144 1 13.4659 4.10261 -0.950335
145 1 14.4359 4.21247 -0.939499
146 1 15.0195 4.34937 -1.72212
147 1 15.8456 4.71925 -1.99999
148 1 16.6331 5.18391 -2.32378
149 1 17.4201 5.69779 -2.41422
150 1 18.3091 5.35729 -2.33259
151 1 19.1814 5.18831 -2.45677
152 1 19.8844 4.57894 -2.6013
153 1 20.291 3.93082 -2.04722
154 1 20.67 4.35099 -1.28417
155 1 21.4251 3.81758 -1.45741
156 1 21.4317 4.28664 -2.30318
157 1 21.8976 5.1269 -2.28248
158 1 22.7794 4.95486 -1.8373
159 1 23.5764 4.53652 -1.64474
160 1 24.268 4.69798 -1.01546
161 1 24.6462 4.28481 -0.267556