ITEM: TIMESTEP
1330000
ITEM: NUMBER OF ATOMS
256
ITEM: BOX BOUNDS mm mm mm
-1.2800000000000000e+02 1.2800000000000000e+02
-1.2800000000000000e+02 1.2800000000000000e+02
-1.2800000000000000e+02 1.2800000000000000e+02
ITEM: ATOMS id type x y z
1 1 -37.4403 43.5446 6.60517
2 1 -36.8868 43.1638 7.26807
3 1 -36.6617 42.5838 7.94209
4 1 -35.9799 42.2744 8.50321
5 1 -35.5648 41.6342 9.00554
6 1 -35.0953 41.1859 9.68108
7 1 -34.5071 41.1843 10.4067
8 1 -33.6524 41.0416 10.747
9 1 -32.7373 41.0813 11.0312
10 1 -31.775 41.0802 11.2142
11 1 -31.022 41.2178 10.6054
12 1 -30.5119 40.9894 9.85425
13 1 -30.128 40.7706 8.9596
14 1 -29.9337 40.6093 8.0197
15 1 -30.0141 40.3957 7.07748
16 1 -29.4908 40.0336 6.36557
17 1 -28.7652 39.4184 6.16885
18 1 -27.9479 39.1485 5.70826
19 1 -26.9692 38.9728 5.61959
20 1 -26.0775 38.7571 5.20773
21 1 -25.2394 38.4141 5.02646
22 1 -24.419 38.0235 4.91969
23 1 -23.8128 37.3267 5.0453
24 1 -23.3778 36.5685 4.65356
25 1 -23.5275 35.9045 4.0207
26 1 -24.0817 35.3269 3.55027
27 1 -24.6759 34.8974 2.93588
28 1 -25.5949 34.7298 2.80412
29 1 -26.443 34.5986 2.37265
30 1 -26.813 34.2775 1.59251
31 1 -26.9164 33.6728 0.859254
32 1 -27.321 33.0499 0.352443
33 1 -27.8826 32.3049 0.226055
34 1 -28.493 31.5678 0.400738
35 1 -28.3324 30.7574 0.902972
36 1 -28.2356 29.8403 1.13233
37 1 -28.0712 28.9344 1.30147
38 1 -27.995 27.952 1.3408
39 1 -27.7502 27.1001 1.0162
40 1 -28.1815 26.3003 1.07134
41 1 -28.2927 25.3231 0.980398
42 1 -28.0511 24.4884 1.2465
43 1 -28.2541 23.7426 1.79538
44 1 -27.9151 23.0461 2.2919
45 1 -27.5561 22.1871 2.28891
46 1 -26.9463 21.5032 2.33809
47 1 -26.3995 20.7727 2.35703
48 1 -25.6643 20.2111 2.53695
49 1 -25.6286 19.8428 3.42721
50 1 -25.6972 19.6262 4.32343
51 1 -25.7238 18.9381 4.99838
52 1 -25.7581 18.0369 5.33706
53 1 -26.0831 17.1554 5.40382
54 1 -25.9047 16.3107 5.02898
55 1 -25.4202 16.1337 4.308
56 1 -24.8851 15.7192 3.64399
57 1 -24.4441 15.698 2.82966
58 1 -23.7049 15.0994 2.61483
59 1 -23.0654 14.5279 2.16707
60 1 -22.4652 13.9638 1.72465
61 1 -21.5463 13.4478 1.88891
62 1 -20.7522 13.2184 1.43014
63 1 -19.9527 13.5802 1.19889
64 1 -19.4342 14.3268 0.902848
65 1 -19.0635 15.1711 0.786104
66 1 -19.4334 15.8403 0.247134
67 1 -19.6124 16.6446 -0.281064
68 1 -19.6816 17.1097 -1.1239
69 1 -19.5363 17.7486 -1.78155
70 1 -19.7573 18.5939 -2.09142
71 1 -19.8104 19.5022 -2.04322
72 1 -19.7388 20.4616 -1.90543
73 1 -19.4949 21.3421 -1.47838
74 1 -19.1708 22.0346 -0.983766
75 1 -18.6547 22.4813 -0.379534
76 1 -17.819 22.9798 -0.188969
77 1 -16.9895 23.4068 -0.256108
78 1 -16.1017 23.7011 -0.283236
79 1 -15.4115 23.543 -0.891404
80 1 -14.6045 23.1678 -1.1826
81 1 -13.9151 23.1675 -1.8222
82 1 -13.4009 23.6277 -2.45032
83 1 -13.0127 23.7532 -3.37978
84 1 -12.9357 23.9395 -4.27536
85 1 -12.6701 24.4376 -5.05219
86 1 -12.6433 24.1752 -5.9492
87 1 -12.8594 23.37 -6.41076
88 1 -13.1575 22.6789 -7.02011
89 1 -13.3092 21.7799 -7.20986
90 1 -13.1045 20.8302 -7.0892
91 1 -12.6449 20.0517 -7.22265
92 1 -11.6845 20.0579 -7.41719
93 1 -10.7839 19.9026 -7.69143
94 1 -9.94746 19.5383 -7.80443
95 1 -9.16977 18.8691 -7.71385
96 1 -8.66131 18.0889 -7.86764
97 1 -8.24957 17.2775 -8.12261
98 1 -7.49526 16.7032 -8.05183
99 1 -6.83091 16.0486 -8.17003
100 1 -6.60659 15.1539 -7.93772
101 1 -6.5179 14.288 -7.58864
102 1 -6.61557 13.5083 -6.99432
103 1 -6.64908 12.5808 -6.95587
104 1 -6.52193 11.6576 -7.06277
105 1 -5.84686 11.182 -7.53892
106 1 -5.697 10.3355 -7.83538
107 1 -5.79211 9.42205 -7.52161
108 1 -6.076 8.64031 -7.06319
109 1 -5.89127 7.99899 -6.38093
110 1 -5.70592 7.10506 -6.05301
111 1 -5.04216 6.44922 -5.94493
112 1 -4.16677 6.7711 -6.2251
113 1 -3.2328 6.77498 -6.33572
114 1 -2.34066 6.62549 -6.59534
115 1 -1.45703 6.40129 -6.30232
116 1 -0.65776 6.15735 -5.93975
117 1 -0.0553115 6.04215 -5.26379
118 1 0.771897 6.07338 -4.91864
119 1 1.44599 5.41379 -5.12681
120 1 2.16529 4.84473 -5.39864
121 1 2.82558 4.86467 -6.08593
122 1 3.58676 4.57572 -6.53624
123 1 4.39217 4.28433 -6.98609
124 1 4.9946 3.69405 -7.48012
125 1 5.10107 3.54255 -8.43469
126 1 5.16863 3.422 -9.3421
127 1 5.31329 3.02384 -10.2025
128 1 4.91614 2.99032 -11.0942
129 1 4.40642 2.81224 -11.8897
130 1 4.31706 2.66483 -12.744
131 1 3.92576 2.57012 -13.5985
132 1 3.70741 2.17098 -14.3949
133 1 3.41677 1.37393 -14.9433
134 1 3.2208 0.457338 -15.1584
135 1 3.30861 -0.444846 -15.4217
136 1 3.16474 -1.11583 -14.718
137 1 2.9307 -1.95175 -14.3084
138 1 2.36552 -2.62743 -13.9496
139 1 1.80478 -3.31043 -14.1082
140 1 1.08143 -3.88979 -14.3148
141 1 0.341226 -4.13743 -14.892
142 1 -0.156853 -4.65188 -15.4961
143 1 -0.695139 -5.11456 -16.0445
144 1 -0.915248 -5.61406 -16.8707
145 1 -1.37357 -6.19796 -17.5245
146 1 -1.78838 -6.95125 -17.8625
147 1 -2.2648 -7.15781 -18.6523
148 1 -2.73574 -7.56673 -19.3045
149 1 -3.29126 -7.61061 -20.1112
150 1 -3.99013 -7.55012 -20.777
151 1 -4.37876 -7.53518 -21.6389
152 1 -4.65372 -7.66505 -22.5461
153 1 -4.57496 -7.73595 -23.4717
154 1 -4.10737 -8.06477 -24.2691
155 1 -3.55324 -7.64679 -24.8681
156 1 -3.06192 -6.84424 -24.7837
157 1 -2.7204 -6.02773 -24.5187
158 1 -2.26274 -5.19313 -24.4024
159 1 -1.49257 -4.73965 -24.1954
160 1 -0.738925 -4.11677 -23.9969
161 1 -0.137578 -3.62693 -24.5655
162 1 0.616091 -3.44752 -25.1428
163 1 1.159 -3.31179 -25.9608
164 1 1.79787 -3.25684 -26.6647
165 1 2.26444 -3.5936 -27.3934
166 1 2.78019 -4.1957 -27.9072
167 1 3.22119 -5.00243 -28.0389
168 1 3.55448 -5.81392 -28.3519
169 1 3.92511 -6.6589 -28.7337
170 1 3.87859 -7.55322 -28.3966
171 1 4.0584 -8.48462 -28.6077
172 1 4.27285 -9.23958 -29.0807
173 1 3.85736 -9.93242 -29.6147
174 1 3.87668 -10.8913 -29.6537
175 1 4.10867 -11.7301 -29.3719
176 1 3.99979 -12.4412 -28.8086
177 1 3.63727 -13.1197 -28.3664
178 1 3.5379 -13.938 -27.8225
179 1 3.61972 -14.6891 -27.2201
180 1 3.94866 -15.3062 -26.5629
181 1 4.42366 -15.4726 -25.7376
182 1 4.91605 -15.7336 -25.0242
183 1 5.65138 -16.0698 -24.5868
184 1 6.44928 -16.4608 -24.3504
185 1 7.29609 -16.0852 -24.2421
186 1 7.55063 -15.1892 -23.8636
187 1 7.764 -14.4238 -23.3575
188 1 8.14686 -13.815 -22.7102
189 1 8.453 -12.9771 -22.4522
190 1 9.15778 -12.636 -21.8618
191 1 9.45719 -12.4389 -20.9771
192 1 9.69575 -11.9981 -20.1987
193 1 10.3038 -11.5974 -19.5275
194 1 10.8719 -11.0169 -19.0581
195 1 11.7639 -10.5994 -18.8941
196 1 12.6585 -10.1506 -18.7751
197 1 13.4986 -9.71584 -18.7105
198 1 14.4202 -9.37623 -18.5183
199 1 14.638 -8.83411 -17.7478
200 1 15.0386 -8.30043 -16.9722
201 1 15.5566 -7.88517 -16.3358
202 1 16.2214 -7.69346 -15.7352
203 1 16.3668 -8.21707 -14.9792
204 1 16.6422 -8.87575 -14.353
205 1 16.3048 -9.54681 -13.8246
206 1 16.0445 -10.3561 -13.3726
207 1 15.6737 -11.0244 -12.8237
208 1 15.7384 -11.8572 -12.4943
209 1 16.503 -12.3038 -12.1286
210 1 16.9296 -13.1324 -12.0644
211 1 16.9227 -14.0677 -12.2202
212 1 16.7102 -14.99 -12.3401
213 1 16.3479 -15.8177 -12.2256
214 1 15.935 -16.6502 -12.1918
215 1 15.0236 -16.963 -12.1592
216 1 14.4507 -17.7253 -12.1913
217 1 13.9379 -18.5071 -12.3142
218 1 13.4559 -19.2969 -12.2936
219 1 12.8229 -19.993 -12.1948
220 1 12.5426 -20.8962 -12.1337
221 1 13.181 -21.5873 -12.1327
222 1 14.0463 -21.9437 -12.2055
223 1 14.3453 -22.8808 -12.3741
224 1 14.1738 -23.7546 -12.4968
225 1 14.1327 -24.7071 -12.6971
226 1 14.1476 -25.6531 -12.5497
227 1 13.5685 -26.3517 -12.3744
228 1 12.8922 -26.5435 -11.6664
229 1 12.703 -26.4846 -10.7639
230 1 13.1139 -25.9106 -10.1538
231 1 13.3269 -25.1595 -9.54003
232 1 13.3879 -24.633 -8.79217
233 1 13.9542 -24.1078 -8.2694
234 1 14.5427 -23.5309 -7.74054
235 1 14.7901 -23.0428 -6.98287
236 1 15.2141 -22.7708 -6.15015
237 1 15.1349 -22.5176 -5.24495
238 1 14.952 -22.0996 -4.43012
239 1 14.4482 -21.7369 -3.70937
240 1 13.8338 -21.572 -2.98194
241 1 13.1769 -21.0993 -2.47222
242 1 12.2978 -21.3016 -2.28366
243 1 11.4931 -21.7786 -2.02381
244 1 10.6333 -21.2621 -1.87885
245 1 9.91647 -20.6935 -1.6381
246 1 9.06897 -20.25 -1.74732
247 1 8.21382 -19.9901 -2.08486
248 1 7.62843 -19.2664 -2.25707
249 1 6.97808 -18.6117 -2.18521
250 1 6.27503 -17.9166 -2.25727
251 1 5.87663 -17.1995 -2.73155
252 1 5.42611 -16.7607 -3.40974
253 1 5.11255 -16.801 -4.22752
254 1 5.04843 -16.6801 -5.15983
255 1 4.97154 -16.0692 -5.85569
256 1 4.63199 -16.1258 -6.74213
ITEM: TIMESTEP
1340000
ITEM: NUMBER OF ATOMS
256
ITEM: BOX BOUNDS mm mm mm
-1.2800000000000000e+02 1.2800000000000000e+02
-1.2800000000000000e+02 1.2800000000000000e+02
-1.2800000000000000e+02 1.2800000000000000e+02
ITEM: ATOMS id type x y z
1 1 -30.1398 45.2768 11.4886
2 1 -30.625 45.425 12.2716
3 1 -31.2199 45.5703 12.9802
4 1 -31.6531 45.2217 13.7936
5 1 -32.1574 44.7967 14.4993
6 1 -32.858 44.2143 14.7748
7 1 -33.3439 43.4181 14.934
8 1 -33.6595 42.5947 14.5592
9 1 -34.0956 41.8718 14.8204
10 1 -34.1496 40.9921 14.6479
11 1 -33.7423 40.2349 14.2489
12 1 -32.9824 39.6947 14.0911
13 1 -32.3495 39.5889 13.4085
14 1 -31.6448 39.3991 12.7538
15 1 -31.1416 39.3347 11.9103
16 1 -31.1567 38.7993 11.1821
17 1 -30.935 38.3495 10.3496
18 1 -30.5182 37.6618 9.76268
19 1 -29.8455 37.101 9.38643
20 1 -29.7936 36.7622 8.56361
21 1 -30.0458 36.2999 7.80207
22 1 -30.0645 35.9072 6.9424
23 1 -29.4438 35.3667 6.49947
24 1 -28.501 35.3377 6.59632
25 1 -27.5914 35.0182 6.4029
26 1 -26.7325 34.6188 6.07118
27 1 -26.1695 34.3408 5.37721
28 1 -25.7204 33.8732 4.72755
29 1 -25.6597 33.4596 3.87356
30 1 -25.9112 32.8622 3.16166
31 1 -26.1704 32.0454 2.88403
32 1 -26.5864 31.7172 2.10985
33 1 -27.2253 31.1393 1.76545
34 1 -26.9714 30.3434 1.21695
35 1 -26.57 29.8591 0.502227
36 1 -26.0012 29.3631 0.0132243
37 1 -25.3048 29.7195 -0.56918
38 1 -24.8834 30.15 -1.27673
39 1 -24.8742 30.2067 -2.18508
40 1 -24.4254 29.6238 -2.76267
41 1 -24.2716 28.9861 -3.41463
42 1 -24.7485 28.1564 -3.44439
43 1 -25.3194 27.5682 -2.97184
44 1 -26.1105 27.0092 -3.01763
45 1 -26.677 26.3161 -2.70686
46 1 -26.8955 25.4234 -2.37834
47 1 -27.5903 24.9964 -2.91035
48 1 -27.9634 24.8958 -3.73112
49 1 -28.1226 24.3041 -4.41419
50 1 -27.6112 23.5095 -4.61105
51 1 -27.0378 22.9072 -5.14303
52 1 -26.4185 22.2573 -4.89285
53 1 -25.6314 21.7029 -4.82494
54 1 -25.0597 21.1602 -4.33034
55 1 -24.2544 20.7824 -3.97903
56 1 -23.3504 20.6808 -3.67255
57 1 -22.7767 20.6764 -2.94268
58 1 -21.9979 20.7133 -2.37962
59 1 -21.3807 20.599 -1.65069
60 1 -20.6227 20.6789 -1.07691
61 1 -19.8053 20.8515 -0.683688
62 1 -18.8739 20.978 -0.520609
63 1 -17.9028 21.0424 -0.60335
64 1 -17.5718 21.8201 -0.282871
65 1 -17.2789 22.7047 -0.22865
66 1 -17.0276 23.4277 -0.755114
67 1 -16.7798 23.9024 -1.55133
68 1 -16.6682 24.7582 -1.96414
69 1 -16.5245 25.5726 -2.35458
70 1 -15.954 25.7397 -3.08791
71 1 -15.3198 25.604 -3.7372
72 1 -14.7393 25.1286 -4.26786
73 1 -14.2579 24.4799 -4.83184
74 1 -13.8001 23.7392 -4.45416
75 1 -13.7466 22.8465 -4.28102
76 1 -13.7118 22.1413 -3.60727
77 1 -13.4915 21.2241 -3.31543
78 1 -13.4841 20.3691 -2.8848
79 1 -13.3996 19.6427 -3.4702
80 1 -13.574 18.9355 -4.01636
81 1 -13.9436 18.7309 -4.80863
82 1 -13.9888 18.6639 -5.79246
83 1 -14.2304 18.683 -6.74026
84 1 -14.1315 19.1452 -7.55091
85 1 -13.9304 19.6491 -8.31923
86 1 -13.5423 19.7301 -9.21282
87 1 -13.1407 19.6636 -10.1105
88 1 -12.5231 19.6163 -10.8162
89 1 -11.7395 19.5275 -11.3016
90 1 -10.9261 19.0197 -11.631
91 1 -10.0372 18.7741 -11.6284
92 1 -9.24983 18.971 -11.1116
93 1 -8.46712 19.3882 -11.2021
94 1 -7.74643 20.042 -11.4001
95 1 -7.23959 20.6925 -11.8288
96 1 -6.38461 20.8925 -12.0705
97 1 -5.46108 21.1765 -11.9817
98 1 -4.57842 21.0882 -11.698
99 1 -3.75814 20.8758 -11.2916
100 1 -3.72977 20.59 -10.4205
101 1 -3.16699 20.1198 -9.86891
102 1 -2.42074 20.1695 -9.32142
103 1 -2.29469 20.0871 -8.34029
104 1 -2.64052 20.0755 -7.48923
105 1 -3.35458 19.7539 -6.98709
106 1 -4.07877 19.2168 -6.68369
107 1 -4.45499 18.3453 -6.74931
108 1 -4.18749 17.5019 -6.93762
109 1 -3.71133 16.7294 -7.23044
110 1 -2.99035 16.1404 -7.27572
111 1 -2.33045 15.5721 -6.99848
112 1 -1.8249 14.7125 -6.91635
113 1 -1.28449 13.9063 -6.88163
114 1 -0.965987 13.0206 -6.69117
115 1 -1.12168 12.1224 -6.72483
116 1 -0.847811 11.2966 -6.40632
117 1 -0.456636 10.5489 -6.07537
118 1 0.0467325 9.72855 -5.96685
119 1 0.0344921 8.78881 -5.804
120 1 0.181763 7.90488 -5.47292
121 1 -0.235407 7.08721 -5.3188
122 1 0.112872 6.22587 -5.28876
123 1 0.329303 5.32478 -5.20669
124 1 0.93998 4.63494 -5.35569
125 1 1.54404 4.02559 -5.78686
126 1 1.96228 3.99504 -6.67621
127 1 2.19978 4.26821 -7.54399
128 1 1.94927 4.75872 -8.35137
129 1 1.84781 5.06981 -9.21262
130 1 1.55823 5.01312 -10.1088
131 1 1.18662 4.42934 -10.6951
132 1 0.559486 3.95925 -11.1741
133 1 -0.280879 3.76351 -11.4364
134 1 -0.763657 3.48671 -12.1605
135 1 -1.43782 3.01896 -12.608
136 1 -1.51946 2.32543 -13.1753
137 1 -1.16388 1.49905 -13.5744
138 1 -0.723433 0.712139 -13.9332
139 1 -0.313461 0.119274 -14.5511
140 1 -0.317512 -0.785229 -14.7876
141 1 -0.301792 -1.62999 -15.1325
142 1 -0.630324 -2.35213 -15.6478
143 1 -1.3668 -2.93387 -15.793
144 1 -1.98224 -3.68719 -16.0966
145 1 -2.49131 -4.21002 -16.7005
146 1 -2.95404 -4.8681 -17.2095
147 1 -3.05226 -5.05493 -18.1154
148 1 -3.17124 -4.73119 -18.9514
149 1 -2.66087 -4.671 -19.7279
150 1 -1.92717 -4.80101 -20.3276
151 1 -1.19073 -5.15745 -20.8928
152 1 -0.930594 -5.15389 -21.8375
153 1 -0.532856 -5.0824 -22.6916
154 1 0.126708 -4.96578 -23.4147
155 1 0.934319 -4.78989 -23.9479
156 1 1.85951 -4.70222 -24.1078
157 1 2.51664 -4.38922 -24.7205
158 1 3.41965 -4.1667 -24.9124
159 1 3.99859 -4.28038 -25.6564
160 1 4.50993 -4.42846 -26.5016
161 1 5.22956 -4.49791 -27.0111
162 1 5.83081 -4.85385 -27.617
163 1 6.31468 -5.57544 -27.9575
164 1 6.38396 -6.48792 -27.9905
165 1 7.06362 -7.10335 -28.1428
166 1 7.93506 -7.4214 -27.8482
167 1 8.4109 -7.99366 -27.174
168 1 8.51621 -8.99584 -27.2824
169 1 8.35199 -9.86773 -27.1493
170 1 8.04284 -10.748 -27.0479
171 1 7.85788 -11.6799 -26.7786
172 1 7.63062 -12.6013 -26.8933
173 1 7.32184 -13.3926 -27.2868
174 1 7.0482 -14.2188 -27.6542
175 1 7.2737 -15.0564 -28.0416
176 1 7.45561 -15.9976 -27.9896
177 1 7.53459 -16.7469 -27.3847
178 1 7.7248 -17.5801 -27.0229
179 1 7.7007 -17.9322 -26.1357
180 1 7.74561 -18.5063 -25.3347
181 1 7.98775 -18.8526 -24.4794
182 1 7.92084 -18.7549 -23.5133
183 1 8.27373 -18.2579 -22.7425
184 1 8.53297 -17.4932 -22.155
185 1 8.69443 -16.5455 -22.1487
186 1 8.75747 -15.5618 -22.1538
187 1 8.59556 -14.6444 -22.0452
188 1 8.9114 -13.7548 -21.9896
189 1 9.49388 -13.3244 -21.3573
190 1 9.94974 -12.8327 -20.6942
191 1 10.4449 -12.8513 -19.9338
192 1 11.0915 -12.7207 -19.2511
193 1 11.9671 -12.5978 -18.8397
194 1 12.7247 -12.0077 -18.6959
195 1 12.8575 -11.1962 -18.1783
196 1 12.8909 -10.2645 -18.0716
197 1 12.3374 -9.52081 -18.1336
198 1 11.922 -8.67271 -18.0567
199 1 11.1002 -8.35192 -17.7658
200 1 10.2637 -8.61459 -17.3752
201 1 9.38363 -8.45296 -17.2447
202 1 8.48296 -8.62652 -17.2046
203 1 7.76717 -8.85862 -16.6436
204 1 7.5497 -9.61189 -16.0861
205 1 7.38304 -9.97959 -15.2262
206 1 7.20997 -10.5081 -14.4957
207 1 6.82993 -10.8919 -13.7024
208 1 6.73397 -11.5829 -13.041
209 1 7.02112 -12.4011 -12.7213
210 1 7.56542 -13.1629 -12.4114
211 1 8.15094 -13.9148 -12.3371
212 1 8.86393 -14.5166 -12.3723
213 1 9.65598 -14.9028 -12.1521
214 1 10.2879 -14.7894 -11.4262
215 1 11.2389 -14.8961 -11.2892
216 1 12.1236 -15.273 -11.2182
217 1 12.9189 -15.6095 -10.991
218 1 13.8705 -15.527 -11.1827
219 1 14.4252 -16.0859 -11.7008
220 1 14.5686 -16.9403 -12.035
221 1 14.73 -17.8604 -12.2935
222 1 15.2683 -18.4938 -12.6975
223 1 15.8591 -19.2367 -12.6799
224 1 16.3587 -20.0237 -12.8549
225 1 16.3137 -20.9542 -12.8872
226 1 17.0658 -21.4937 -12.7637
227 1 17.9255 -21.5864 -12.4374
228 1 18.1765 -21.2257 -11.6518
229 1 18.7015 -21.0263 -10.8997
230 1 18.8926 -20.7422 -10.028
231 1 18.8707 -20.6374 -9.10999
232 1 18.5676 -20.679 -8.17967
233 1 18.2036 -20.6591 -7.27864
234 1 18.3299 -20.8176 -6.36605
235 1 18.0658 -20.5086 -5.54453
236 1 17.6336 -19.9375 -4.96754
237 1 17.397 -19.2612 -4.32681
238 1 16.5376 -19.0516 -4.03105
239 1 15.6809 -19.2001 -3.63771
240 1 14.7428 -19.0702 -3.51333
241 1 13.9236 -18.6148 -3.41447
242 1 13.4703 -17.7943 -3.21197
243 1 12.6849 -17.2894 -2.97639
244 1 11.8345 -17.4519 -3.36684
245 1 10.9118 -17.7276 -3.29026
246 1 10.245 -18.0421 -2.71676
247 1 9.9311 -18.3919 -1.90108
248 1 9.61858 -19.2966 -1.82624
249 1 9.08424 -20.026 -1.88288
250 1 8.15134 -20.3109 -1.93925
251 1 7.39918 -20.3367 -1.39925
252 1 6.80387 -20.9414 -0.997316
253 1 6.30783 -21.5807 -0.562282
254 1 5.59502 -22.0925 -0.874426
255 1 4.82391 -22.6012 -0.7158
256 1 4.028 -23.1005 -0.757696
ITEM: TIMESTEP
1350000
ITEM: NUMBER OF ATOMS
256
ITEM: BOX BOUNDS mm mm mm
-1.2800000000000000e+02 1.2800000000000000e+02
-1.2800000000000000e+02 1.2800000000000000e+02
-1.2800000000000000e+02 1.2800000000000000e+02
ITEM: ATOMS id type x y z
1 1 -35.9702 42.6046 13.1216
2 1 -35.9828 43.1383 13.9454
3 1 -36.1555 43.2182 14.8606
4 1 -36.4454 43.4198 15.7406
5 1 -36.857 42.6559 16.1075
6 1 -37.1314 41.7444 16.2192
7 1 -37.0572 40.8287 16.2894
8 1 -37.5295 40.034 16.1256
9 1 -37.622 39.104 16.1278
10 1 -37.5495 38.1625 16.0434
11 1 -37.67 37.2752 15.7825
12 1 -37.4015 36.3649 15.4425
13 1 -36.7049 35.6886 15.3031
14 1 -35.9495 35.2674 14.8837
15 1 -35.0688 34.9097 14.6871
16 1 -34.2874 35.2453 14.2685
17 1 -33.7317 35.587 13.5871
18 1 -33.3747 36.1628 12.9654
19 1 -32.8826 36.7239 12.3769
20 1 -31.9785 36.7908 12.0822
21 1 -31.088 36.6453 11.844
22 1 -30.4109 36.3066 11.3809
23 1 -29.807 35.9723 10.6875
24 1 -29.4064 35.9497 9.82939
25 1 -29.1622 35.944 8.92508
26 1 -29.1403 36.0414 8.0139
27 1 -29.6003 36.311 7.19328
28 1 -30.4102 36.076 6.95031
29 1 -31.0275 35.5072 6.48082
30 1 -31.558 35.0201 5.80763
31 1 -31.5476 34.1665 5.40874
32 1 -31.2186 33.4698 4.92185
33 1 -31.1288 32.6541 4.4855
34 1 -30.8567 32.3546 3.63361
35 1 -30.6834 31.5284 3.0909
36 1 -30.6057 30.6083 2.80993
37 1 -30.693 29.6969 2.7562
38 1 -30.424 28.79 2.67629
39 1 -29.9551 27.9126 2.4556
40 1 -29.6669 27.0413 2.24359
41 1 -29.304 26.1994 2.06248
42 1 -28.8752 25.5095 1.60762
43 1 -28.5675 24.9108 0.937021
44 1 -28.1594 24.1674 0.550745
45 1 -27.8462 23.4727 -0.0476025
46 1 -27.4193 22.6682 -0.361426
47 1 -26.6127 22.1337 -0.262253
48 1 -25.9994 21.7327 -0.84966
49 1 -25.2905 21.4908 -1.43083
50 1 -24.4875 21.1219 -1.81092
51 1 -23.6945 20.6528 -1.62682
52 1 -22.8908 20.1452 -1.73284
53 1 -22.5372 19.509 -1.16613
54 1 -21.8904 18.9907 -0.69257
55 1 -21.6839 18.6114 0.132515
56 1 -21.3389 18.9692 0.970325
57 1 -20.9199 19.4719 1.74092
58 1 -20.0295 19.7057 1.61986
59 1 -19.3714 20.4127 1.6201
60 1 -18.6039 20.8402 1.99798
61 1 -17.9808 21.2754 2.51192
62 1 -17.0822 21.3489 2.83426
63 1 -16.2426 21.719 2.6872
64 1 -15.6392 22.4617 2.54313
65 1 -15.498 23.2323 2.03947
66 1 -15.4837 23.9898 1.49886
67 1 -15.4609 24.3729 0.624826
68 1 -15.1361 24.2628 -0.196761
69 1 -15.4354 23.8406 -0.998913
70 1 -15.9284 23.2315 -1.55947
71 1 -16.7636 22.8992 -1.89339
72 1 -17.5334 22.5459 -2.24839
73 1 -17.7606 21.9822 -2.9239
74 1 -17.7871 21.997 -3.85271
75 1 -18.116 21.7476 -4.73289
76 1 -18.3877 21.2571 -5.48413
77 1 -18.9468 20.7824 -6.13301
78 1 -19.3233 20.3994 -6.94867
79 1 -19.9233 20.0646 -7.52867
80 1 -20.4085 19.8904 -8.34844
81 1 -20.2499 20.4454 -9.12348
82 1 -19.957 21.0375 -9.81202
83 1 -19.1133 21.4246 -9.76289
84 1 -18.3052 21.5526 -9.40414
85 1 -17.4617 21.3449 -9.03295
86 1 -16.6979 21.083 -8.53838
87 1 -16.1969 20.8069 -7.75595
88 1 -15.5893 20.1277 -7.57962
89 1 -14.83 19.7242 -7.209
90 1 -14.0129 19.589 -6.84098
91 1 -13.2555 19.1262 -6.58785
92 1 -12.4426 18.6622 -6.42618
93 1 -11.544 18.4384 -6.29358
94 1 -10.6402 18.2947 -6.10426
95 1 -9.70839 18.134 -6.01946
96 1 -8.78265 18.1583 -5.89049
97 1 -7.83877 18.3929 -6.06777
98 1 -6.95362 18.1518 -6.19315
99 1 -6.09656 18.4806 -6.22701
100 1 -5.29314 18.5705 -5.73228
101 1 -4.58133 18.7643 -5.1439
102 1 -3.9806 19.0595 -4.54726
103 1 -3.61459 18.9535 -3.6895
104 1 -3.56232 19.0846 -2.74343
105 1 -3.62061 18.6219 -1.93844
106 1 -3.73628 17.836 -1.48521
107 1 -3.74649 16.9589 -1.11527
108 1 -3.91017 16.1011 -0.751966
109 1 -4.14312 15.3149 -0.29653
110 1 -3.93667 14.4038 -0.0353075
111 1 -3.99134 13.6346 -0.593448
112 1 -4.0855 12.6901 -0.584375
113 1 -4.03475 11.788 -0.993837
114 1 -4.56123 11.0126 -0.96636
115 1 -4.2673 10.1297 -0.868475
116 1 -4.01215 9.4363 -1.458
117 1 -4.21131 8.62627 -1.89245
118 1 -3.786 8.38581 -2.664
119 1 -3.4375 8.06241 -3.52941
120 1 -2.81616 8.2589 -4.22772
121 1 -2.83325 8.76008 -4.9909
122 1 -2.8124 8.77383 -5.9322
123 1 -2.45873 8.2638 -6.5849
124 1 -1.95025 8.35545 -7.31627
125 1 -1.40875 8.53929 -8.10042
126 1 -1.40518 8.10958 -8.92768
127 1 -1.77877 7.4885 -9.51378
128 1 -2.19534 6.80258 -9.93348
129 1 -2.66543 6.06041 -10.2109
130 1 -3.04614 5.49947 -10.8087
131 1 -2.82256 4.9514 -11.5254
132 1 -3.0199 4.09697 -11.8158
133 1 -3.42071 3.37755 -12.2741
134 1 -3.80832 2.55974 -12.5651
135 1 -3.69381 1.7316 -12.9473
136 1 -3.75249 0.813261 -13.2758
137 1 -3.63511 0.0720072 -13.9084
138 1 -3.73541 -0.59416 -14.5764
139 1 -3.43815 -0.920724 -15.4187
140 1 -3.10298 -0.977389 -16.283
141 1 -2.72742 -0.814317 -17.1547
142 1 -2.48829 -0.675685 -18.008
143 1 -2.1883 -0.700645 -18.8515
144 1 -2.36814 -0.848994 -19.7662
145 1 -2.56229 -1.30059 -20.5567
146 1 -2.74565 -1.64437 -21.3887
147 1 -2.76306 -2.10706 -22.2909
148 1 -2.62241 -2.87389 -22.7792
149 1 -2.30767 -2.67517 -23.6151
150 1 -1.99471 -2.21401 -24.3558
151 1 -1.4611 -2.03686 -25.1344
152 1 -0.928736 -2.25506 -25.8727
153 1 -0.480891 -2.47696 -26.7247
154 1 -0.107281 -3.2506 -27.1785
155 1 0.458096 -3.934 -27.354
156 1 1.35033 -4.23155 -27.3095
157 1 2.05869 -4.69371 -26.781
158 1 2.46665 -5.43504 -26.4692
159 1 2.52571 -6.34494 -26.6292
160 1 2.49431 -7.287 -26.3442
161 1 3.0979 -7.98726 -26.0786
162 1 3.88074 -8.55178 -26.0052
163 1 4.05361 -9.45022 -26.3184
164 1 4.28132 -10.3259 -26.4081
165 1 5.0537 -10.8429 -26.6231
166 1 5.75893 -11.3955 -26.7832
167 1 6.35953 -11.9454 -27.3191
168 1 6.69901 -12.7137 -27.7454
169 1 6.87209 -13.6277 -27.9964
170 1 7.14452 -14.5431 -28.1478
171 1 7.23064 -15.4654 -28.2038
172 1 7.69015 -16.2529 -27.975
173 1 7.86137 -17.0217 -27.3905
174 1 8.40992 -17.7452 -27.0051
175 1 8.66844 -18.1635 -26.1887
176 1 9.03519 -18.3162 -25.3808
177 1 9.36373 -17.9819 -24.5746
178 1 9.24204 -18.0304 -23.6446
179 1 8.74614 -18.0934 -22.817
180 1 8.31508 -18.0143 -21.9661
181 1 8.25089 -17.9371 -21.0723
182 1 8.50352 -17.7503 -20.1702
183 1 8.85996 -17.4704 -19.3748
184 1 8.99786 -17.4133 -18.4793
185 1 8.97036 -17.0636 -17.6196
186 1 8.11581 -16.6202 -17.4177
187 1 7.59468 -15.8661 -17.0676
188 1 7.64276 -15.1184 -16.6009
189 1 7.8361 -14.5583 -15.8116
190 1 8.38762 -13.7837 -15.7375
191 1 9.02185 -13.077 -15.7421
192 1 9.32421 -12.2244 -15.8719
193 1 9.57291 -11.5899 -16.5465
194 1 9.52799 -10.8307 -17.1334
195 1 9.40933 -9.96164 -17.5909
196 1 9.22315 -9.04941 -17.8753
197 1 9.08718 -8.256 -18.3065
198 1 9.2724 -7.39116 -18.1661
199 1 9.65395 -6.5561 -18.1852
200 1 9.76396 -5.61729 -18.0612
201 1 9.98333 -4.79563 -17.6518
202 1 10.1719 -4.41781 -16.7913
203 1 10.315 -3.93338 -16.0062
204 1 10.2382 -3.63127 -15.05
205 1 10.5007 -3.58926 -14.1382
206 1 10.4789 -3.72203 -13.2158
207 1 10.4437 -4.62097 -12.9097
208 1 10.2013 -5.50372 -12.6821
209 1 9.98418 -6.41344 -12.6476
210 1 9.61892 -7.29064 -12.5544
211 1 9.20592 -8.15931 -12.5828
212 1 9.08328 -8.9054 -13.2075
213 1 9.18416 -9.69193 -13.7928
214 1 9.74077 -10.1208 -14.3657
215 1 10.564 -10.5204 -14.6836
216 1 11.2449 -11.0742 -15.041
217 1 11.7572 -11.5813 -14.4793
218 1 12.3612 -12.0883 -13.9757
219 1 13.1837 -12.4871 -13.6916
220 1 14.1107 -12.6083 -13.872
221 1 14.9693 -12.5843 -14.3062
222 1 15.7012 -13.1183 -14.5866
223 1 15.939 -13.9051 -15.0367
224 1 16.133 -14.7719 -14.7489
225 1 16.2269 -15.2368 -13.9601
226 1 16.2795 -15.6271 -13.0945
227 1 16.3802 -16.1107 -12.2837
228 1 16.1935 -16.6329 -11.5701
229 1 16.165 -16.923 -10.6937
230 1 16.3757 -17.0489 -9.80257
231 1 16.4295 -16.8964 -8.91397
232 1 16.679 -17.2589 -8.07418
233 1 17.1037 -17.5974 -7.28053
234 1 17.1989 -18.197 -6.56412
235 1 17.3858 -18.6211 -5.78274
236 1 17.3043 -19.1394 -5.00401
237 1 16.7151 -19.589 -4.42734
238 1 15.8952 -19.9485 -4.1474
239 1 15.0318 -20.4166 -4.11488
240 1 14.3101 -20.8726 -4.49498
241 1 13.5033 -21.1096 -4.92776
242 1 12.6032 -21.0683 -4.91728
243 1 11.8166 -20.4905 -4.91838
244 1 11.0725 -19.9386 -5.29591
245 1 10.4343 -19.2866 -5.34944
246 1 10.3687 -18.3356 -5.14659
247 1 10.0577 -17.623 -4.60554
248 1 10.1894 -17.2004 -3.81504
249 1 9.92822 -16.7435 -3.08223
250 1 9.54583 -16.056 -2.52565
251 1 9.25075 -15.7781 -1.71062
252 1 8.97018 -15.5163 -0.86761
253 1 9.06903 -16.0075 -0.131802
254 1 9.12036 -16.6119 0.551421
255 1 9.06905 -17.3035 1.0746
256 1 8.96322 -18.2418 1.14503
ITEM: TIMESTEP
1360000
ITEM: NUMBER OF ATOMS
256
ITEM: BOX BOUNDS mm mm mm
-1.2800000000000000e+02 1.2800000000000000e+02
-1.2800000000000000e+02 1.2800000000000000e+02
-1.2800000000000000e+02 1.2800000000000000e+02
ITEM: ATOMS id type x y z
1 1 -41.1065 44.9317 21.335
2 1 -40.1854 44.7259 21.0339
3 1 -39.412 44.1816 20.9141
4 1 -39.0679 43.2945 20.8268
5 1 -38.4129 42.6198 20.7703
6 1 -37.7497 41.9603 20.7402
7 1 -37.3298 41.3242 20.2
8 1 -37.0425 40.4799 19.8639
9 1 -36.9238 39.9331 19.0824
10 1 -36.9835 39.1591 18.5897
11 1 -37.0225 38.3866 18.0738
12 1 -37.1115 37.6454 17.5381
13 1 -37.4097 37.1796 16.731
14 1 -37.3087 36.3285 16.4099
15 1 -36.5898 36.2845 15.8421
16 1 -35.9441 35.8573 15.2558
17 1 -35.2128 35.9025 14.6447
18 1 -34.3171 36.0321 14.4303
19 1 -33.5568 36.3667 14.0256
20 1 -32.7985 36.561 13.4947
21 1 -32.1007 36.5573 12.9008
22 1 -31.3024 36.4034 12.4526
23 1 -30.5436 36.8806 12.1535
24 1 -29.6778 37.0333 11.8174
25 1 -28.977 36.5485 11.4768
26 1 -28.4474 36.0982 10.8468
27 1 -27.8382 35.4584 10.464
28 1 -27.2905 34.8239 10.0635
29 1 -26.6269 34.4641 9.44169
30 1 -25.9953 34.1392 8.7787
31 1 -25.7857 34.0878 7.87365
32 1 -25.7367 34.0038 6.93521
33 1 -25.8913 33.8735 6.06205
34 1 -25.2201 33.6088 5.48983
35 1 -24.3768 33.2913 4.93619
36 1 -23.7511 33.0786 4.21346
37 1 -23.322 32.9604 3.41705
38 1 -23.1755 32.6196 2.50345
39 1 -22.8175 32.4554 1.66155
40 1 -22.5231 31.8163 1.01533
41 1 -22.6799 30.9594 0.590096
42 1 -22.8196 30.0355 0.295284
43 1 -23.1164 29.2059 0.597262
44 1 -23.1486 28.2154 0.633021
45 1 -23.0845 27.3083 0.632544
46 1 -22.9203 26.3765 0.81519
47 1 -22.8723 25.4423 0.960936
48 1 -22.9689 24.6852 1.47982
49 1 -22.9026 24.1101 2.172
50 1 -22.8355 23.3074 2.68966
51 1 -22.6398 22.5277 3.21704
52 1 -22.2315 21.8987 3.79119
53 1 -21.594 21.3531 4.26518
54 1 -20.8632 20.7238 4.58165
55 1 -19.9769 20.4591 4.50282
56 1 -19.175 20.0068 4.36967
57 1 -18.3378 19.6218 4.66571
58 1 -17.412 19.548 4.55316
59 1 -17.0531 20.1662 3.89899
60 1 -17.1771 20.6743 3.10655
61 1 -16.841 21.3375 2.59994
62 1 -16.5304 21.9519 1.93863
63 1 -16.6796 22.5774 1.27972
64 1 -16.2867 22.7277 0.451328
65 1 -15.9911 22.94 -0.399577
66 1 -15.8988 23.7035 -0.929502
67 1 -15.3879 24.2745 -1.47834
68 1 -14.7954 24.6619 -2.14044
69 1 -14.5238 24.5766 -2.98412
70 1 -14.4663 24.4231 -3.88901
71 1 -14.6737 24.2424 -4.76891
72 1 -15.366 24.23 -5.40748
73 1 -16.174 24.3225 -6.02457
74 1 -16.975 24.4778 -6.55365
75 1 -17.6151 24.4007 -7.18193
76 1 -18.0204 24.5207 -8.00376
77 1 -18.4187 24.4547 -8.81551
78 1 -19.1757 24.5387 -9.41091
79 1 -19.541 23.86 -9.96996
80 1 -19.2177 22.9408 -9.84121
81 1 -19.6288 22.0687 -9.66485
82 1 -19.9247 21.2532 -9.17096
83 1 -20.3912 20.5342 -8.86395
84 1 -20.5058 19.6813 -8.67761
85 1 -20.5995 18.8015 -8.42086
86 1 -20.345 17.8986 -8.30614
87 1 -19.5923 17.4726 -7.92658
88 1 -18.7343 17.1653 -7.72151
89 1 -17.859 16.9663 -7.78227
90 1 -17.0798 16.5331 -8.2072
91 1 -16.2534 16.7077 -7.75225
92 1 -15.7131 16.7805 -6.98962
93 1 -15.2366 17.2198 -6.28252
94 1 -15.2497 17.9488 -5.74828
95 1 -15.0856 18.2836 -4.93717
96 1 -14.7321 18.9115 -4.34443
97 1 -14.2651 19.5479 -3.82449
98 1 -13.7804 20.172 -3.33945
99 1 -13.3874 20.3093 -2.51894
100 1 -12.7176 20.707 -1.96293
101 1 -12.1867 20.8041 -1.20953
102 1 -11.3703 20.6435 -0.750941
103 1 -10.4834 20.8492 -0.723963
104 1 -9.56061 20.8489 -0.613848
105 1 -8.75017 20.3844 -0.338828
106 1 -8.01869 19.7974 -0.248153
107 1 -7.37167 19.1763 -0.428915
108 1 -6.69471 18.6028 -0.830678
109 1 -5.95244 18.0641 -1.01955
110 1 -5.3001 17.8036 -0.38179
111 1 -4.6079 17.137 -0.328966
112 1 -3.96049 16.5724 -0.75489
113 1 -3.29733 16.1618 -1.27524
114 1 -3.04961 15.4925 -1.81975
115 1 -2.73615 14.6785 -2.32769
116 1 -2.58549 13.7744 -2.59347
117 1 -2.33006 12.9668 -3.10743
118 1 -2.44266 12.1742 -3.63856
119 1 -1.93646 11.7696 -4.33554
120 1 -2.12731 11.1066 -4.96404
121 1 -2.72594 10.3778 -5.1166
122 1 -2.85469 9.49065 -5.43374
123 1 -2.8408 8.52911 -5.39399
124 1 -2.76946 7.60568 -5.37297
125 1 -2.86413 6.64087 -5.53567
126 1 -3.06643 5.71188 -5.63095
127 1 -2.8874 4.79903 -5.81857
128 1 -2.43769 3.95276 -5.93914
129 1 -2.09901 3.55001 -6.69585
130 1 -1.53702 2.97417 -7.27657
131 1 -0.984434 2.69023 -7.96887
132 1 -0.100402 2.51912 -8.08976
133 1 0.773787 2.7012 -8.48539
134 1 1.28408 3.21432 -9.12584
135 1 2.02549 3.10486 -9.69222
136 1 2.49935 2.60815 -10.3088
137 1 2.51009 2.14161 -11.1936
138 1 2.44697 1.7677 -12.0747
139 1 1.9349 1.66456 -12.8242
140 1 1.65135 1.60079 -13.6904
141 1 1.35924 1.84283 -14.5658
142 1 0.865529 2.01019 -15.3386
143 1 0.442378 1.95074 -16.1953
144 1 0.774978 1.47989 -16.96
145 1 0.695075 0.705814 -17.4869
146 1 0.294513 0.0627545 -18.0258
147 1 -0.132191 -0.208249 -18.7801
148 1 -0.442577 -0.711475 -19.5257
149 1 -0.693605 -1.5252 -19.869
150 1 -0.465764 -2.42583 -20.3374
151 1 -0.815092 -2.19523 -21.2482
152 1 -0.878751 -1.98923 -22.1547
153 1 -0.753665 -1.9985 -23.0546
154 1 -0.331668 -2.64603 -23.6431
155 1 -0.315683 -3.38766 -24.1934
156 1 -0.350862 -4.17264 -24.6362
157 1 -0.88443 -4.95455 -24.953
158 1 -1.17015 -5.85847 -25.0309
159 1 -1.43468 -6.33741 -24.2438
160 1 -1.43807 -7.19667 -23.8886
161 1 -0.830563 -7.9279 -23.8529
162 1 -0.332352 -8.7342 -23.8123
163 1 -0.196521 -9.58476 -23.4075
164 1 0.244144 -10.1388 -22.8497