ITEM: TIMESTEP
550000
ITEM: NUMBER OF ATOMS
256
ITEM: BOX BOUNDS mm mm mm
-1.2800000000000000e+02 1.2800000000000000e+02
-1.2800000000000000e+02 1.2800000000000000e+02
-1.2800000000000000e+02 1.2800000000000000e+02
ITEM: ATOMS id type x y z
1 1 -32.255 2.11287 5.59242
2 1 -32.3172 2.24781 4.67167
3 1 -31.4516 1.96902 4.5312
4 1 -30.9841 2.64213 4.10839
5 1 -31.2842 1.95811 3.54375
6 1 -30.6003 1.78541 2.90506
7 1 -30.3463 1.87828 2.01388
8 1 -31.1534 2.3619 1.83076
9 1 -31.1918 3.2497 1.54233
10 1 -31.5297 4.04473 1.85134
11 1 -32.4353 4.42163 1.78061
12 1 -33.3401 4.29976 1.58361
13 1 -33.987 5.01161 1.7707
14 1 -34.0919 5.97397 1.91245
15 1 -33.1849 6.11355 1.8848
16 1 -32.7015 5.32785 2.20177
17 1 -32.3749 5.11746 3.05683
18 1 -32.1794 5.92702 3.5233
19 1 -31.896 6.56888 4.20028
20 1 -32.4887 7.24719 3.95471
21 1 -33.1267 7.78692 4.4674
22 1 -32.452 7.78131 5.09523
23 1 -31.8107 8.03873 5.65992
24 1 -31.1368 8.40134 5.12909
25 1 -30.8963 8.14762 4.22798
26 1 -31.0427 7.3533 4.68427
27 1 -30.5974 7.55833 5.52008
28 1 -29.7671 7.20105 5.84904
29 1 -29.0972 6.65435 6.22478
30 1 -28.506 5.92126 6.4949
31 1 -27.8853 5.48377 7.03116
32 1 -27.599 4.66362 7.39741
33 1 -28.2385 4.54076 8.02151
34 1 -28.5367 5.30665 8.52584
35 1 -28.6342 5.55459 9.41917
36 1 -29.4209 5.90951 9.76953
37 1 -29.6142 5.38418 10.5304
38 1 -30.4642 5.07727 10.2003
39 1 -31.4363 4.92408 10.2204
40 1 -31.6528 4.35556 9.43272
41 1 -31.8885 3.46304 9.28908
42 1 -32.6509 2.90154 9.45622
43 1 -32.7631 1.95661 9.22191
44 1 -32.3448 1.29339 8.78049
45 1 -32.0621 0.461138 8.38916
46 1 -31.3008 0.934947 8.74733
47 1 -30.7347 0.267474 9.13492
48 1 -30.6401 -0.249752 8.32479
49 1 -29.8164 -0.530971 7.95817
50 1 -29.3412 -0.27375 7.16098
51 1 -28.987 0.413747 7.66887
52 1 -29.3673 1.17318 8.04677
53 1 -29.4212 1.45707 7.16102
54 1 -29.9118 2.09456 7.58383
55 1 -30.1318 2.95962 7.23842
56 1 -29.5946 3.2422 6.50816
57 1 -28.6935 2.96813 6.32943
58 1 -28.0212 3.1315 6.95446
59 1 -27.0977 3.35641 6.83108
60 1 -26.3874 3.39193 6.24379
61 1 -25.7515 2.74745 6.03437
62 1 -25.9363 1.89306 6.31673
63 1 -26.1389 1.74435 7.24408
64 1 -25.5512 1.14886 7.73241
65 1 -24.9662 0.446099 7.60167
66 1 -24.9855 -0.43929 7.91776
67 1 -24.9006 -1.25676 8.33652
68 1 -24.6625 -1.5086 9.17226
69 1 -24.2354 -2.15567 9.79038
70 1 -23.8061 -2.54622 10.5707
71 1 -23.0952 -2.6133 11.1535
72 1 -22.5615 -3.12977 11.7858
73 1 -21.7441 -2.57437 11.7516
74 1 -22.4675 -1.9989 11.8867
75 1 -23.1551 -1.41926 11.8724
76 1 -23.6703 -0.65572 12.0574
77 1 -23.1272 -0.431539 12.7893
78 1 -22.4577 -0.159816 13.5143
79 1 -21.7346 -0.728868 13.6159
80 1 -21.672 -0.268581 12.8374
81 1 -21.7092 0.466474 12.1922
82 1 -21.4394 1.2652 11.7013
83 1 -20.7452 1.05915 11.0777
84 1 -20.4054 0.656956 10.2293
85 1 -20.661 -0.125762 9.69561
86 1 -20.7151 -0.806887 9.04135
87 1 -20.3863 -1.63532 8.83814
88 1 -19.6225 -2.09076 9.05664
89 1 -18.7059 -2.09381 9.16054
90 1 -18.0716 -2.45953 9.81849
91 1 -17.6663 -3.24763 9.67598
92 1 -17.0657 -3.83869 9.25512
93 1 -16.4486 -4.54196 9.30386
94 1 -15.7482 -4.71842 8.69423
95 1 -15.169 -5.47904 8.99167
96 1 -15.7547 -5.96303 8.41641
97 1 -15.3881 -6.7663 8.00175
98 1 -14.9237 -7.15963 7.28389
99 1 -14.1206 -7.54348 7.02713
100 1 -13.5133 -7.46115 6.30866
101 1 -13.8796 -8.30943 6.2201
102 1 -13.1645 -8.86946 6.49081
103 1 -12.6431 -9.13798 7.31089
104 1 -12.8275 -9.90329 6.73815
105 1 -11.9111 -10.0294 6.94273
106 1 -11.4717 -10.4141 6.18001
107 1 -11.0109 -10.3219 5.35031
108 1 -10.1271 -9.93455 5.38849
109 1 -9.44333 -9.52613 4.85216
110 1 -9.18012 -8.64137 4.94044
111 1 -8.34048 -8.869 4.57974
112 1 -8.25455 -9.08034 3.68785
113 1 -8.64607 -8.68199 2.91325
114 1 -9.04019 -7.87794 2.72327
115 1 -9.6466 -8.10823 3.38399
116 1 -10.0736 -7.4024 3.8262
117 1 -10.5785 -6.65462 3.90695
118 1 -10.4276 -5.94325 3.27097
119 1 -9.73376 -5.40819 2.91615
120 1 -9.37258 -6.06659 3.42015
121 1 -9.48236 -5.41934 4.09505
122 1 -9.03599 -4.5434 4.09053
123 1 -8.32214 -5.06903 4.26304
124 1 -7.83798 -5.67044 3.69064
125 1 -7.34965 -6.47411 3.88264
126 1 -6.35924 -6.35145 3.79853
127 1 -5.52809 -6.0609 4.01979
128 1 -4.87873 -6.00942 4.67179
129 1 -4.38102 -5.31216 5.11732
130 1 -5.14252 -4.91051 5.47803
131 1 -6.03133 -4.88939 5.57047
132 1 -6.64357 -4.88321 4.87679
133 1 -7.08333 -4.16564 4.54071
134 1 -6.1789 -4.06767 4.39385
135 1 -5.92899 -4.09192 3.46379
136 1 -5.31033 -4.75679 3.32829
137 1 -4.3985 -4.60423 3.05695
138 1 -3.52666 -4.15707 3.07312
139 1 -2.86035 -4.47112 3.72081
140 1 -2.13529 -3.88316 3.52248
141 1 -2.37048 -2.94765 3.34125
142 1 -2.00395 -2.07564 3.19265
143 1 -1.19035 -1.59514 2.92437
144 1 -0.806636 -0.739887 2.80526
145 1 -0.98432 -0.41404 1.877
146 1 -0.632577 0.222735 1.31703
147 1 0.341498 0.26174 1.17965
148 1 0.369045 -0.174642 1.95527
149 1 1.1603 -0.399577 2.32254
150 1 1.57164 -0.957401 2.91771
151 1 1.75498 -0.286916 3.56711
152 1 2.50561 0.224016 3.77067
153 1 2.13285 1.06589 3.78476
154 1 1.30704 1.6111 3.84711
155 1 1.70659 1.9274 3.05818
156 1 2.09061 2.44108 2.35173
157 1 2.15604 2.60098 1.42246
158 1 1.6106 2.06491 0.868357
159 1 2.23062 2.11568 0.202583
160 1 3.15861 2.34927 0.43004
161 1 3.83567 3.02332 0.287129
162 1 3.80941 3.3796 1.16412
163 1 3.44893 3.61724 1.96596
164 1 3.46147 4.51214 2.07925
165 1 3.63108 5.33688 2.53488
166 1 4.28495 5.90253 2.24305
167 1 4.58452 6.6706 1.80267
168 1 5.15508 7.20336 2.3132
169 1 5.70432 7.34451 3.03171
170 1 5.33075 7.50952 3.92111
171 1 5.99888 7.45674 4.55136
172 1 6.5287 7.03276 3.9251
173 1 7.44899 6.89044 3.85802
174 1 7.13514 6.01912 3.9858
175 1 7.53753 5.18095 4.15469
176 1 7.8606 4.34253 4.23501
177 1 7.26501 3.73017 3.77879
178 1 7.52078 2.85771 3.93917
179 1 8.26451 2.51209 4.43131
180 1 8.55143 2.0784 5.20868
181 1 9.0153 1.24594 5.18125
182 1 9.36675 0.45075 5.44226
183 1 8.55727 0.557114 5.87389
184 1 9.12801 0.286318 6.60873
185 1 9.10329 0.823414 7.35675
186 1 8.38724 1.44998 7.59036
187 1 7.57133 1.11006 7.75645
188 1 6.83993 1.18369 8.3449
189 1 6.88091 0.283219 8.5738
190 1 6.23431 -0.294512 8.92423
191 1 6.51215 0.115496 9.71891
192 1 6.56861 -0.12912 10.619
193 1 7.08447 -0.290989 11.3691
194 1 7.82155 -0.43303 10.8293
195 1 8.40078 0.265877 11.0362
196 1 8.78706 1.00091 11.549
197 1 8.80661 1.81124 12.0721
198 1 8.79395 1.24215 12.8519
199 1 7.99432 1.63301 13.1562
200 1 7.68 2.25507 12.5702
201 1 7.83199 2.3835 11.5977
202 1 7.5606 2.07386 10.7812
203 1 7.56899 2.76025 10.1571
204 1 7.70126 3.22949 9.26868
205 1 8.61234 3.27183 8.94147
206 1 9.06984 3.40898 8.12985
207 1 8.9477 3.80088 7.25697
208 1 8.60254 3.87929 6.35696
209 1 9.16058 3.48786 5.65791
210 1 9.51158 3.53637 4.77354
211 1 9.20459 3.71886 3.88727
212 1 9.01903 3.04999 3.25741
213 1 9.14824 2.90927 2.3529
214 1 9.19152 2.11835 1.83244
215 1 8.72097 2.09379 0.984624
216 1 8.17585 2.33626 0.288713
217 1 8.34138 1.70588 -0.36774
218 1 8.48141 1.17543 -1.14647
219 1 8.29569 0.31696 -1.4685
220 1 7.40636 -0.0250231 -1.20736
221 1 7.14806 -0.910547 -0.98517
222 1 7.22665 -0.844507 -0.0617493
223 1 7.92531 -1.26148 0.387002
224 1 8.68666 -1.66325 0.183498
225 1 9.08673 -2.48972 0.468124
226 1 10.0915 -2.60578 0.465445
227 1 10.9314 -2.25656 0.190742
228 1 11.4711 -2.42711 0.897589
229 1 11.8563 -1.69592 1.31858
230 1 11.4588 -0.911668 1.59952
231 1 11.9974 -0.2094 1.13305
232 1 12.8916 -0.451008 0.873819
233 1 13.838 -0.568663 1.02141
234 1 14.266 0.199437 1.38992
235 1 14.7866 0.995774 1.45598
236 1 14.8272 1.46311 2.26283
237 1 14.4269 2.30856 2.09686
238 1 13.7328 3.00127 2.2863
239 1 13.0109 3.22312 2.82356
240 1 12.7983 4.06915 2.47735
241 1 13.0907 4.94503 2.48617
242 1 14.0286 5.10394 2.79457
243 1 13.9583 5.18177 3.71451
244 1 14.0723 5.79182 4.37319
245 1 14.8484 6.26973 4.49819
246 1 15.1308 6.04204 3.62893
247 1 15.3707 5.30076 3.12611
248 1 15.0698 5.17372 2.23848
249 1 15.1995 4.28976 2.46238
250 1 14.4036 4.37914 1.94773
251 1 15.0764 4.52268 1.2178
252 1 15.0183 3.77858 0.647034
253 1 14.7396 3.86322 -0.255951
254 1 13.9416 3.26246 -0.361363
255 1 13.1401 3.76239 -0.245166
256 1 13.4327 4.67423 -0.129173
ITEM: TIMESTEP
560000
ITEM: NUMBER OF ATOMS
256
ITEM: BOX BOUNDS mm mm mm
-1.2800000000000000e+02 1.2800000000000000e+02
-1.2800000000000000e+02 1.2800000000000000e+02
-1.2800000000000000e+02 1.2800000000000000e+02
ITEM: ATOMS id type x y z
1 1 -30.7275 6.84446 3.49229
2 1 -30.0585 7.58553 3.38334
3 1 -30.7621 7.80431 2.80304
4 1 -30.6058 7.82781 1.89454
5 1 -30.4144 7.19322 1.25205
6 1 -30.6432 6.54657 0.673738
7 1 -31.1479 6.87972 -0.0166387
8 1 -30.6122 6.93502 -0.79386
9 1 -29.8248 7.23507 -0.374197
10 1 -29.3074 8.09085 -0.126909
11 1 -28.374 8.14965 -0.311741
12 1 -27.5183 7.84554 -0.358225
13 1 -27.1308 7.44828 0.369078
14 1 -27.0394 6.58497 0.732307
15 1 -27.3251 5.79164 1.08307
16 1 -27.116 5.24715 1.78901
17 1 -27.6305 4.96202 2.51375
18 1 -27.8436 5.66722 3.04976
19 1 -28.5704 5.77323 3.68386
20 1 -28.7878 5.46872 4.60069
21 1 -29.5209 6.04729 4.57203
22 1 -30.1939 6.25844 5.25306
23 1 -30.8256 6.94011 5.30326
24 1 -31.109 7.69742 5.72061
25 1 -30.6472 8.39823 6.17243
26 1 -30.4258 7.71091 6.79779
27 1 -30.0613 7.03922 7.44842
28 1 -29.5707 7.05146 8.20788
29 1 -29.1056 7.61757 7.64424
30 1 -28.1928 7.36748 7.39156
31 1 -27.7781 6.71266 6.79923
32 1 -27.9005 6.15094 6.10309
33 1 -27.0826 5.8648 6.53229
34 1 -27.5176 5.94707 7.33138
35 1 -26.6841 6.48464 7.37986
36 1 -26.0135 7.01761 7.82443
37 1 -25.047 7.1357 7.56752
38 1 -24.1764 6.81178 7.31917
39 1 -23.6649 6.97826 6.57657
40 1 -23.7685 6.12966 6.22436
41 1 -24.2418 5.30607 6.2471
42 1 -24.6252 4.9606 5.47574
43 1 -24.5469 4.8602 4.54428
44 1 -25.2644 4.40515 4.16916
45 1 -25.5285 3.76156 3.54827
46 1 -26.3443 3.39185 3.31208
47 1 -26.0898 2.89351 2.5677
48 1 -26.2357 1.99491 2.45733
49 1 -26.5743 1.24114 2.82264
50 1 -25.6378 1.37464 3.13891
51 1 -25.1625 2.28853 3.00365
52 1 -24.6265 1.97055 3.68752
53 1 -23.8545 1.90018 4.27171
54 1 -24.3998 2.03083 5.01049
55 1 -24.3241 1.08824 4.89455
56 1 -24.4629 0.283658 5.32145
57 1 -23.5895 -0.117785 5.2816
58 1 -23.8895 -0.590499 5.9859
59 1 -24.1247 -1.33193 6.52134
60 1 -24.1619 -1.56371 7.43619
61 1 -24.5571 -2.38336 7.27536
62 1 -23.8228 -2.76848 7.6939
63 1 -23.3322 -3.41664 8.20321
64 1 -22.6493 -3.40802 8.91085
65 1 -22.4349 -2.81553 9.55729
66 1 -22.1806 -2.04336 9.09759
67 1 -21.5181 -1.46274 8.92103
68 1 -20.8968 -1.83164 9.54078
69 1 -20.0502 -1.97425 9.21792
70 1 -19.9883 -1.50638 8.39341
71 1 -20.2447 -1.07088 7.61383
72 1 -20.6192 -0.235561 7.92211
73 1 -19.9666 0.0916449 8.52463
74 1 -19.9737 -0.108489 9.39293
75 1 -19.1732 -0.419027 9.70137
76 1 -18.7338 0.198672 10.2429
77 1 -17.9742 -0.323068 10.0671
78 1 -17.7328 0.183733 9.32434
79 1 -17.3502 0.358307 8.38914
80 1 -17.5118 0.422138 7.45005
81 1 -16.6373 0.164445 7.38439
82 1 -15.9758 -0.3865 7.14077
83 1 -15.4749 -0.774366 6.38132
84 1 -16.0674 -1.31679 5.94673
85 1 -15.752 -2.0189 5.40841
86 1 -14.8685 -1.97698 5.05421
87 1 -13.9086 -2.00661 4.87452
88 1 -13.0566 -2.18052 5.19403
89 1 -13.1175 -3.06762 4.7804
90 1 -12.4716 -3.55532 4.2439
91 1 -11.6483 -3.28672 4.55219
92 1 -10.8361 -3.68293 4.34814
93 1 -10.1212 -4.04791 3.91178
94 1 -9.70058 -4.92402 4.1724
95 1 -9.94274 -5.87127 4.0334
96 1 -10.2068 -6.47177 4.62891
97 1 -10.5101 -7.36743 4.46095
98 1 -10.581 -7.60453 3.58231
99 1 -10.2553 -8.40913 3.27741
100 1 -10.894 -8.93918 2.78964
101 1 -11.6862 -9.35329 2.5297
102 1 -11.2384 -9.72532 1.82177
103 1 -10.9989 -10.0103 1.0084
104 1 -10.9151 -10.4769 0.159373
105 1 -10.9616 -10.6324 -0.804875
106 1 -11.6467 -10.8891 -1.44315
107 1 -11.5856 -10.2808 -2.21753
108 1 -10.6788 -10.2138 -1.9118
109 1 -10.1404 -9.70099 -2.49435
110 1 -9.32876 -9.5347 -2.9291
111 1 -8.85453 -9.38106 -3.78245
112 1 -7.95869 -9.4138 -3.49719
113 1 -8.18398 -8.8908 -4.24742
114 1 -8.18998 -7.98649 -4.07824
115 1 -8.38623 -7.32563 -3.4231
116 1 -7.96098 -7.4085 -2.60119
117 1 -8.05461 -7.13824 -1.67989
118 1 -7.65623 -7.24213 -0.806481
119 1 -7.98735 -6.55052 -0.237502
120 1 -7.57643 -5.97571 0.391489
121 1 -7.63081 -5.19617 0.906003
122 1 -7.86878 -4.78811 1.70673
123 1 -7.12052 -4.37198 2.0802
124 1 -7.18335 -3.60015 1.59164
125 1 -7.93671 -3.1333 1.25057
126 1 -8.81253 -3.09327 1.03479
127 1 -9.30969 -2.70048 1.71048
128 1 -9.84552 -1.93089 1.60937
129 1 -9.51927 -1.33438 2.28249
130 1 -9.1986 -0.999647 3.12654
131 1 -8.58759 -1.66937 2.86783
132 1 -8.02576 -1.12797 3.37155
133 1 -7.7836 -0.261295 3.0786
134 1 -6.82754 -0.196005 3.07977
135 1 -6.19723 -0.74231 2.55061
136 1 -5.50182 -1.01229 2.0609
137 1 -4.89839 -1.6135 1.72633
138 1 -4.62348 -2.45781 2.06311
139 1 -4.46892 -3.325 1.78078
140 1 -4.5874 -3.94335 1.08907
141 1 -4.3519 -4.44539 0.298011
142 1 -3.61712 -4.95712 0.50003
143 1 -3.2596 -4.81784 -0.400198
144 1 -2.78634 -4.03371 -0.278322
145 1 -1.9209 -3.58205 -0.273333
146 1 -1.04293 -3.32871 -0.289533
147 1 -0.19024 -3.37189 0.0653149
148 1 0.737802 -3.29478 0.269824
149 1 1.47837 -3.93755 0.413863
150 1 1.5346 -3.91127 1.4047
151 1 1.90821 -3.55962 2.1771
152 1 2.61873 -3.47735 2.74153
153 1 3.30216 -3.19718 3.32796
154 1 4.08512 -2.80736 3.6231
155 1 4.65394 -2.11216 3.67816
156 1 4.62383 -1.82149 4.64066
157 1 5.30731 -1.18845 4.6811
158 1 4.84168 -0.798071 5.39345
159 1 4.51656 0.0910059 5.20245
160 1 3.76958 0.377516 4.74784
161 1 4.51382 0.850772 4.28585
162 1 5.39072 0.489001 4.27403
163 1 6.20276 0.74164 3.84759
164 1 6.47345 1.59997 4.1608
165 1 6.09628 2.19584 4.79313
166 1 5.17368 2.03645 4.85642
167 1 4.38088 2.29927 4.43011
168 1 3.79833 2.99546 4.29682
169 1 2.97196 2.57272 4.33729
170 1 3.06425 2.48456 5.27643
171 1 3.88748 2.28627 5.61518
172 1 3.7401 3.2546 5.91392
173 1 4.40091 3.72197 5.33359
174 1 4.94458 4.36892 5.63649
175 1 4.86341 4.97386 6.34567
176 1 4.36552 4.2068 6.64508
177 1 4.7907 4.58355 7.39156
178 1 4.80654 4.17833 8.19862
179 1 5.40204 3.46275 8.32987
180 1 5.95618 3.79204 9.01757
181 1 6.80814 4.12766 9.10565
182 1 7.62677 4.14411 9.5562
183 1 8.25381 3.71665 10.1161
184 1 8.19341 3.83813 11.1042
185 1 8.69389 3.06995 10.8215
186 1 9.38431 2.49787 11.0723
187 1 9.97672 2.83387 11.7283
188 1 10.1659 3.70685 11.3598
189 1 10.9077 4.1141 10.8468
190 1 11.5679 3.50399 11.0547
191 1 11.6035 3.50252 10.1364
192 1 12.3917 3.01207 10.1902
193 1 12.6963 2.44033 9.49225
194 1 11.9897 2.74526 8.9847
195 1 11.6193 3.36694 8.36453
196 1 12.2301 3.3335 7.53117
197 1 12.023 3.24821 6.58542
198 1 11.6136 3.18038 5.73278
199 1 11.3446 2.38567 6.16332
200 1 10.7269 2.32506 6.83309
201 1 10.645 3.04411 7.45398
202 1 9.89773 3.42116 7.87246
203 1 9.0992 3.59768 8.37951
204 1 8.70731 4.42467 8.14576
205 1 8.50571 4.2602 7.22555
206 1 8.4241 3.81381 6.40879
207 1 7.88791 3.24381 5.8533
208 1 7.4747 2.41387 5.54167
209 1 7.28328 1.75077 4.85616
210 1 8.01569 1.26541 4.58424
211 1 8.38098 1.97997 4.02612
212 1 8.84845 2.0811 3.21171
213 1 8.67489 1.14128 3.21366
214 1 7.79374 1.31253 3.10275
215 1 7.29784 0.929602 3.75808
216 1 7.37529 -0.0183259 3.95373
217 1 8.10675 -0.545291 3.95923
218 1 7.94597 -0.859471 3.0896
219 1 8.86316 -1.10569 3.01567
220 1 8.80767 -1.42216 2.15981
221 1 9.56237 -2.04496 2.1349
222 1 9.42557 -2.79591 2.70236
223 1 9.02671 -3.498 3.13409
224 1 9.57571 -4.06131 3.63907
225 1 10.2064 -4.04494 2.89122
226 1 10.8307 -3.35085 3.06946
227 1 10.5978 -2.40433 2.87457
228 1 11.0812 -1.69564 2.46524
229 1 11.3336 -1.97578 1.65539
230 1 12.2398 -2.31367 1.70178
231 1 12.3091 -1.39409 1.72603
232 1 12.5661 -0.665774 2.28637
233 1 11.9234 -0.171255 2.69425
234 1 11.4215 0.553342 2.83798
235 1 11.1602 0.327526 3.79143
236 1 11.1507 0.497811 4.75883
237 1 11.5844 1.30743 4.95517
238 1 11.6637 0.88152 5.81521
239 1 12.1528 0.666725 6.53259
240 1 12.9717 1.05812 6.40942
241 1 13.7816 1.29222 5.99273
242 1 13.5557 1.87757 5.29849
243 1 14.0694 2.29785 4.5764
244 1 13.8603 3.03732 3.99564
245 1 13.132 3.13826 4.56364
246 1 12.2587 3.26127 4.66501
247 1 11.5258 3.83961 4.80234
248 1 11.465 4.49876 4.18167
249 1 10.6336 4.70474 3.72331
250 1 9.98077 5.257 3.32855
251 1 9.12171 4.95551 3.6498
252 1 8.55338 4.18857 3.54854
253 1 7.79469 3.68076 3.61862
254 1 7.17673 3.90805 4.34148
255 1 7.38987 4.82312 4.55882
256 1 8.05121 5.05406 3.94896
ITEM: TIMESTEP
570000
ITEM: NUMBER OF ATOMS
256
ITEM: BOX BOUNDS mm mm mm
-1.2800000000000000e+02 1.2800000000000000e+02
-1.2800000000000000e+02 1.2800000000000000e+02
-1.2800000000000000e+02 1.2800000000000000e+02
ITEM: ATOMS id type x y z
1 1 -34.8507 6.0237 -1.57538
2 1 -34.5295 6.76134 -2.06874
3 1 -33.6537 6.70623 -1.5685
4 1 -32.8789 6.69399 -2.13756
5 1 -33.1527 6.60111 -3.03889
6 1 -32.7168 7.23869 -3.43315
7 1 -32.995 7.98884 -3.06848
8 1 -33.4849 8.38776 -2.4086
9 1 -33.2209 9.28748 -2.61219
10 1 -32.4226 9.24264 -2.11502
11 1 -31.9128 8.80913 -2.77868
12 1 -31.0764 8.45819 -2.36163
13 1 -31.2499 8.12799 -1.52331
14 1 -31.0229 8.44957 -0.731676
15 1 -30.9918 8.15628 0.211459
16 1 -30.3137 7.67955 0.755676
17 1 -30.7152 6.96653 1.31349
18 1 -30.7252 6.32482 1.92523
19 1 -31.2963 6.66352 2.61175
20 1 -31.6465 5.96957 3.10238
21 1 -31.3641 5.30311 3.70578
22 1 -31.0788 5.72 4.55873
23 1 -30.1614 5.77463 4.39294
24 1 -29.5426 6.13608 3.77979
25 1 -29.727 6.19795 2.8749
26 1 -30.1116 6.94926 3.38722
27 1 -30.2772 7.59854 4.0013
28 1 -30.7212 7.95246 4.71466
29 1 -30.9122 7.04674 4.85411
30 1 -30.1384 6.56178 5.21043
31 1 -29.4906 7.07977 5.60463
32 1 -28.5303 7.09569 5.6966
33 1 -27.9998 6.49113 6.23569
34 1 -27.1632 6.04777 6.33559
35 1 -26.7808 6.65273 5.73986
36 1 -26.5611 7.53813 6.05054
37 1 -25.8493 8.08475 6.31204
38 1 -25.4094 8.92269 6.09627
39 1 -24.9578 9.58406 5.59039
40 1 -24.3589 10.1789 5.25525
41 1 -23.466 9.8711 5.32998
42 1 -22.7667 9.24934 5.06448
43 1 -22.3563 9.47886 4.27612
44 1 -22.1292 8.67978 3.87886
45 1 -22.8616 8.42491 3.28312
46 1 -23.5659 7.84766 3.43481
47 1 -23.5622 7.18628 4.12048
48 1 -23.3184 6.39883 4.58559
49 1 -23.1233 5.54514 4.94752
50 1 -23.0492 4.98314 5.70289
51 1 -22.9465 5.2493 6.60644
52 1 -22.5836 5.44205 7.48217
53 1 -23.3207 4.94857 7.72383
54 1 -24.2819 4.53795 7.80632
55 1 -24.472 3.76867 8.22595
56 1 -23.5433 3.57759 8.25123
57 1 -23.7761 3.53791 9.13475
58 1 -22.9586 3.04401 9.1412
59 1 -23.0353 2.09913 9.31878
60 1 -22.4067 1.63623 8.78416
61 1 -22.1944 0.736101 9.15503
62 1 -21.8693 0.587962 10.0366
63 1 -22.3138 0.157227 10.7242
64 1 -21.8804 -0.222554 11.4612
65 1 -21.6233 -0.868491 12.105
66 1 -21.871 -1.32662 12.9137
67 1 -21.3877 -1.2673 13.7087
68 1 -21.2722 -0.411695 14.133
69 1 -20.6183 -0.573653 14.7998
70 1 -20.1206 -1.2241 14.4577
71 1 -20.0043 -2.121 14.0467
72 1 -19.4784 -2.53158 13.3921
73 1 -19.9464 -3.32694 13.2292
74 1 -20.3171 -4.01878 12.6501
75 1 -20.2467 -4.19457 11.7427
76 1 -20.2745 -4.01194 10.7777
77 1 -19.8653 -4.1575 9.94441
78 1 -19.333 -4.32625 9.24328
79 1 -19.1452 -4.91211 8.53325
80 1 -19.3446 -4.41354 7.71771
81 1 -18.897 -5.27184 7.66152
82 1 -18.0272 -4.99465 7.42504
83 1 -17.1427 -5.04804 7.24355
84 1 -16.6374 -5.83797 7.22779
85 1 -15.7624 -5.99534 7.44104
86 1 -15.4434 -5.95001 6.54719
87 1 -14.8126 -6.52066 6.06448
88 1 -13.9962 -6.72141 5.60557
89 1 -13.3494 -7.13578 6.15452
90 1 -12.9431 -7.80036 6.65482
91 1 -12.1843 -7.30766 6.3961
92 1 -11.5513 -6.66276 6.08683
93 1 -10.825 -6.79556 6.66908
94 1 -10.0286 -6.34101 6.32885
95 1 -9.86376 -6.31082 5.36676
96 1 -9.43488 -6.56789 4.58101
97 1 -9.07351 -6.61771 3.70292
98 1 -9.45985 -6.48451 2.809
99 1 -9.80001 -7.13108 2.21102
100 1 -10.0931 -7.37843 1.32513
101 1 -10.3498 -6.68943 0.679217
102 1 -10.1735 -7.39694 -0.011344
103 1 -10.4559 -7.43889 -0.895399
104 1 -10.5361 -7.94293 -1.6702
105 1 -9.83547 -8.56083 -1.89592
106 1 -8.97404 -8.39456 -2.18603
107 1 -8.43925 -9.12511 -2.43037
108 1 -7.63387 -9.20262 -2.05161
109 1 -6.80255 -9.40355 -1.62398
110 1 -6.21889 -8.79847 -1.20013
111 1 -5.88925 -8.59394 -2.06945
112 1 -4.97064 -8.28016 -1.90958
113 1 -4.61347 -7.47014 -2.15457
114 1 -4.17425 -7.14822 -1.38009
115 1 -4.20049 -6.60032 -0.556796
116 1 -4.6709 -5.99368 -1.1276
117 1 -5.26415 -6.66991 -0.719419
118 1 -6.20552 -6.69129 -0.837027
119 1 -7.11984 -6.45048 -1.09064
120 1 -7.998 -6.51997 -1.39089
121 1 -8.33571 -6.62558 -2.24401
122 1 -9.00881 -6.52159 -2.88529
123 1 -9.45268 -6.00017 -3.57231
124 1 -9.13752 -5.65828 -4.36499
125 1 -9.67632 -5.18684 -4.88665
126 1 -9.81525 -4.36166 -4.47499
127 1 -9.21028 -3.95562 -3.8475
128 1 -8.98561 -3.48354 -3.0661
129 1 -8.4623 -2.9001 -2.54287
130 1 -7.91644 -3.36856 -1.95274
131 1 -7.16611 -3.22772 -1.34642
132 1 -7.02768 -4.16477 -1.4208
133 1 -6.77071 -5.03691 -1.22207
134 1 -6.02953 -4.69406 -0.752389
135 1 -5.62329 -4.51276 0.0885104
136 1 -5.11976 -4.0423 0.745223
137 1 -5.03224 -4.73739 1.49465
138 1 -4.41009 -5.41129 1.37831
139 1 -3.56651 -5.07731 1.67222
140 1 -3.08181 -4.28366 1.7702
141 1 -2.71384 -3.42103 1.7797
142 1 -2.79402 -2.65495 1.2831
143 1 -2.05584 -2.05004 1.04515
144 1 -2.10083 -2.2231 0.137695
145 1 -1.28362 -1.78981 0.140588
146 1 -0.707456 -1.54985 -0.506895
147 1 0.125657 -1.23408 -0.430945
148 1 0.429371 -1.62872 0.349925
149 1 0.803634 -1.33858 1.1577
150 1 1.3209 -0.919556 1.75497
151 1 1.86773 -0.354088 2.28006
152 1 1.14249 0.202058 2.47136
153 1 1.28775 0.561347 3.35516
154 1 1.8689 1.23344 3.6898
155 1 2.59976 0.750232 3.3178
156 1 3.31504 1.04363 3.79302
157 1 4.01105 1.10756 3.13102
158 1 4.67414 0.50517 3.39867
159 1 5.5932 0.369046 3.61404
160 1 5.44015 0.724053 4.50921
161 1 5.20155 1.62115 4.62841
162 1 5.90487 2.15254 4.80738
163 1 6.21767 2.78504 4.22193
164 1 6.90262 3.26101 4.63571
165 1 7.45694 3.96787 5.09719
166 1 7.93903 4.74774 5.36168
167 1 8.42929 5.44158 5.73462
168 1 9.41805 5.33753 5.52554
169 1 9.93278 5.41463 6.23959
170 1 9.83205 4.95826 7.0547
171 1 10.0707 4.15015 6.66243
172 1 9.62733 3.5867 7.24094
173 1 9.61952 2.73999 6.74625
174 1 9.14054 2.40728 7.5831
175 1 8.99881 2.19662 8.46935
176 1 8.96023 1.31779 8.80669
177 1 9.39084 0.71259 9.51572
178 1 9.3381 -0.102354 9.97903
179 1 9.32375 -0.19753 10.9576
180 1 9.74524 -0.688615 11.5859
181 1 10.1025 -0.572707 12.4494
182 1 10.5402 0.0918238 12.9446
183 1 11.3655 0.132219 12.4582
184 1 11.1707 -0.274796 11.5741
185 1 11.2446 -0.0919361 10.6775
186 1 12.2776 -0.17115 10.8067
187 1 12.881 -0.672322 10.2715
188 1 12.7351 -1.63322 10.5914
189 1 13.1645 -2.4719 10.4963
190 1 13.3717 -2.5057 9.60069
191 1 13.8038 -2.39872 8.73965
192 1 14.3216 -2.13233 7.98879
193 1 15.1171 -2.14478 7.45589
194 1 15.7403 -1.44664 7.5821
195 1 15.002 -1.25478 8.19306
196 1 14.7566 -0.40795 8.50128
197 1 15.43 0.0836678 9.02811
198 1 14.8009 0.722003 9.33236
199 1 14.6173 1.64655 9.4818
200 1 14.492 2.55421 9.21446
201 1 13.5832 2.48184 9.00769
202 1 13.0056 3.00608 8.46523
203 1 12.0834 3.10785 8.26846
204 1 11.4188 3.59395 7.79181
205 1 10.4818 3.51784 7.75477
206 1 9.79629 3.46075 8.37863
207 1 9.95746 2.53788 8.30742
208 1 10.0841 1.94562 7.65018
209 1 10.628 1.78066 6.91128
210 1 10.3718 1.91394 5.96496
211 1 9.5995 1.74805 5.4338
212 1 9.379 1.03788 6.04899
213 1 8.58076 1.55904 6.07996
214 1 7.90433 1.23647 6.66235
215 1 7.63578 1.06367 7.55354
216 1 7.5783 0.227262 7.05642
217 1 6.86439 -0.112103 7.50211
218 1 6.38559 -0.973687 7.53328
219 1 5.47519 -1.22711 7.46899
220 1 4.58318 -1.63704 7.37096
221 1 4.19886 -1.96448 6.54253
222 1 5.08833 -2.01514 6.19718
223 1 5.87033 -2.23167 5.63074
224 1 6.72442 -1.87681 5.46801
225 1 7.62345 -1.44352 5.3885
226 1 8.0328 -1.18252 4.56169
227 1 8.73158 -1.7976 4.67717
228 1 9.16013 -2.67483 4.62882
229 1 9.50568 -3.08788 5.36617
230 1 9.57973 -2.43285 6.02826
231 1 10.5075 -2.61959 6.07881
232 1 10.614 -2.93072 5.22619
233 1 10.9553 -3.82574 5.13474
234 1 11.5928 -4.11512 4.50476
235 1 11.0097 -3.88619 3.76033
236 1 11.2978 -3.67003 2.94492
237 1 11.8955 -3.11591 2.47935
238 1 12.2294 -2.26551 2.58287
239 1 12.8912 -1.63995 2.82256
240 1 13.5388 -1.19511 2.26867
241 1 13.877 -0.73955 1.54432
242 1 14.4504 -0.400241 2.21784
243 1 14.5678 -0.183569 3.1584
244 1 15.2054 0.00321032 3.79446
245 1 14.6409 0.690793 4.17762
246 1 15.4762 0.962339 3.93338
247 1 15.9077 1.80138 3.94774
248 1 15.3217 2.35677 3.43857
249 1 15.3797 3.05462 4.05526
250 1 16.2293 3.24706 3.8308
251 1 16.8734 3.66921 3.32802
252 1 17.199 3.80411 2.44628
253 1 16.3274 3.45404 2.25974
254 1 15.3798 3.3017 2.50041
255 1 14.6076 2.90757 2.11838
256 1 13.8403 2.82671 2.60909
ITEM: TIMESTEP
580000
ITEM: NUMBER OF ATOMS
256
ITEM: BOX BOUNDS mm mm mm
-1.2800000000000000e+02 1.2800000000000000e+02
-1.2800000000000000e+02 1.2800000000000000e+02
-1.2800000000000000e+02 1.2800000000000000e+02
ITEM: ATOMS id type x y z
1 1 -33.1146 12.1304 0.506314
2 1 -33.7281 12.8612 0.65016
3 1 -34.3285 12.5948 -0.0432332
4 1 -33.8327 13.2765 -0.297201
5 1 -33.4225 12.8114 -0.96736
6 1 -32.5548 13.0649 -0.78341
7 1 -32.0919 12.754 -1.55424
8 1 -31.2397 12.8808 -1.91488
9 1 -31.3034 13.8253 -2.18554
10 1 -31.0137 14.7169 -2.13427
11 1 -30.3408 14.5971 -2.77345
12 1 -30.7526 13.8676 -3.16575
13 1 -31.3855 13.1807 -3.09132
14 1 -31.4067 12.2883 -3.44854
15 1 -31.102 11.6149 -2.86326
16 1 -31.4004 10.9146 -3.39826
17 1 -30.646 10.3654 -3.56929
18 1 -29.9194 10.9611 -3.50156
19 1 -29.5961 11.4331 -2.72657
20 1 -28.8667 11.1073 -2.25609
21 1 -28.7673 10.2713 -1.86934
22 1 -28.968 9.36839 -2.00642
23 1 -29.7808 9.27932 -2.51434
24 1 -30.3126 10.0192 -2.32132
25 1 -31.0612 10.0758 -1.69482
26 1 -30.6185 10.077 -0.855961
27 1 -30.1071 10.309 -0.0914555
28 1 -30.4819 10.9635 0.564187
29 1 -30.3264 10.3411 1.21926
30 1 -29.4085 10.4731 1.35207
31 1 -29.0861 10.0593 2.08878
32 1 -28.6027 10.3292 2.80134
33 1 -29.2784 10.0892 3.36393
34 1 -29.2131 9.27384 3.78282
35 1 -28.9948 8.31283 3.63968
36 1 -28.2946 8.14638 3.03288
37 1 -28.3727 7.22163 3.20306
38 1 -27.4264 7.31905 3.02407
39 1 -26.6722 7.66701 3.50987
40 1 -26.2228 6.86176 3.92956
41 1 -25.606 6.3569 4.47316
42 1 -26.5012 6.15007 4.70571
43 1 -27.2908 6.06139 4.22265
44 1 -27.1811 5.67243 3.36876
45 1 -26.4048 5.41569 3.76087
46 1 -25.722 4.81599 3.70994
47 1 -25.1307 5.25517 3.14152
48 1 -24.2526 5.07138 2.83933
49 1 -24.1282 5.0095 1.90459
50 1 -24.2826 4.08534 1.80098
51 1 -24.2155 3.33907 1.28106
52 1 -24.4042 3.53782 0.312068
53 1 -23.817 3.91507 -0.28163
54 1 -23.3897 3.22276 -0.736705
55 1 -22.5583 3.62298 -0.746555
56 1 -22.2479 3.47285 0.0799696
57 1 -22.4081 2.74722 0.615762
58 1 -22.7108 2.08973 1.2244
59 1 -22.2095 1.39121 1.59082
60 1 -22.5828 0.5727 1.80148
61 1 -22.5252 0.209723 2.73259
62 1 -22.6134 0.0441491 3.70884
63 1 -22.7868 0.260111 4.60161
64 1 -22.7348 -0.139821 5.4279
65 1 -21.851 0.140757 5.5024
66 1 -21.1417 0.0260503 6.07695
67 1 -21.5496 -0.843438 5.96881
68 1 -21.5909 -1.54558 5.2734
69 1 -21.2398 -2.40823 5.02431
70 1 -20.5672 -2.96611 5.2392
71 1 -19.6607 -2.97913 5.26262
72 1 -19.1572 -3.7769 5.29747
73 1 -18.6056 -2.99625 5.04554
74 1 -18.6788 -2.63376 4.17077
75 1 -18.4113 -3.48332 3.89056
76 1 -18.626 -3.83252 3.00999
77 1 -17.9002 -3.19791 2.7766
78 1 -17.493 -3.09793 3.62669
79 1 -16.9128 -3.53805 4.16593
80 1 -16.7028 -4.26585 4.81969
81 1 -16.275 -5.05299 5.12966
82 1 -15.5319 -5.53983 5.40999
83 1 -15.3586 -6.42265 5.83091
84 1 -14.4945 -6.86072 5.74556
85 1 -13.9867 -6.36807 6.48616
86 1 -13.5173 -6.38872 7.31323
87 1 -12.7656 -6.6886 6.88888
88 1 -12.0823 -6.00404 6.73223
89 1 -11.1535 -5.98366 6.94317
90 1 -10.3319 -6.46158 7.07242
91 1 -9.51136 -5.87283 7.13105
92 1 -9.12079 -6.72924 6.91418
93 1 -8.44686 -7.29709 6.62951
94 1 -8.10253 -8.10278 6.91454
95 1 -7.44309 -8.02419 7.5435
96 1 -7.5941 -7.71642 8.44347
97 1 -8.40442 -7.98761 8.06404
98 1 -9.10908 -8.51107 7.86408
99 1 -9.50544 -8.92941 7.1091
100 1 -9.09642 -8.83251 6.19536
101 1 -9.1041 -8.46851 5.27321
102 1 -9.97366 -8.16224 5.05844
103 1 -10.7807 -8.59297 4.74126
104 1 -11.2066 -8.24913 4.01628
105 1 -10.3767 -7.77829 4.04832
106 1 -9.60343 -7.33138 4.30916
107 1 -9.43117 -6.44222 4.07317
108 1 -9.10773 -6.2874 3.18133
109 1 -9.30076 -6.58038 2.2884
110 1 -9.80171 -5.86906 1.87257
111 1 -9.2584 -5.09556 1.69671
112 1 -8.47012 -4.93715 1.12811
113 1 -8.17222 -4.41189 0.439253
114 1 -7.46047 -3.94657 0.797444
115 1 -7.35176 -3.3008 0.0978718
116 1 -7.55213 -2.37061 -0.00362397
117 1 -6.66403 -2.04232 -0.0991256
118 1 -6.61852 -1.47757 0.60958
119 1 -5.81858 -1.30496 0.072376
120 1 -5.24091 -0.596334 0.333219
121 1 -5.11857 -1.33443 0.956656
122 1 -4.62029 -1.20449 1.70232
123 1 -4.25549 -1.33628 2.59522
124 1 -4.3288 -0.471156 2.76984
125 1 -5.01605 0.111402 2.3754
126 1 -4.90785 0.634151 1.59001
127 1 -4.85766 0.561391 0.649141
128 1 -5.22394 0.495324 -0.21097
129 1 -6.08729 0.86193 -0.135413
130 1 -5.77805 1.72498 0.0591767
131 1 -6.2041 2.63189 0.0777103
132 1 -6.70878 2.78723 0.860091
133 1 -6.51935 2.92633 1.72741
134 1 -6.21814 3.27175 2.52823
135 1 -5.35808 3.2503 2.04585
136 1 -4.94463 2.71089 1.36022
137 1 -4.01412 2.82215 1.15966
138 1 -4.17085 1.96465 0.840805
139 1 -3.64321 1.77781 0.0489452
140 1 -3.16217 1.94588 0.856781
141 1 -2.52709 1.43735 1.25452
142 1 -1.67994 1.00241 1.34232
143 1 -2.0994 0.677519 2.09333
144 1 -2.80705 0.0341968 2.35125
145 1 -2.72355 -0.538283 3.145
146 1 -2.12609 -0.496645 3.87185
147 1 -1.31068 -0.696547 4.29364
148 1 -1.44745 0.231617 4.16656
149 1 -1.65262 1.03401 4.59352
150 1 -1.01388 1.48612 5.16886
151 1 -0.708104 1.38056 6.01527
152 1 -0.733776 2.18171 6.51133
153 1 -0.341079 2.73383 7.21722
154 1 -0.848528 3.10442 7.91435
155 1 -0.241004 3.62043 8.41841
156 1 -0.577708 4.02713 9.17697
157 1 -0.374851 4.87752 9.52136
158 1 0.327541 4.73661 10.1126
159 1 0.595672 5.515 10.6418
160 1 0.715469 6.11592 11.3595
161 1 1.52258 5.81016 10.9442
162 1 2.27702 5.64024 11.5701
163 1 2.40283 5.3308 12.4535
164 1 3.01135 4.66229 12.641
165 1 3.74511 4.22831 12.943
166 1 3.65085 3.66546 13.655
167 1 4.02286 2.79515 13.6435
168 1 4.16718 1.89931 13.3828
169 1 3.8704 1.13161 12.9111
170 1 4.76653 0.966101 12.7152
171 1 4.9056 0.364542 11.9844
172 1 4.74342 0.181148 11.1166
173 1 4.51442 -0.142235 10.2494
174 1 3.63145 -0.265347 10.03
175 1 2.83351 -0.651822 9.91558
176 1 2.40184 -1.46598 9.70123
177 1 2.12545 -2.28079 9.28588