ITEM: TIMESTEP
0
ITEM: NUMBER OF ATOMS
256
ITEM: BOX BOUNDS mm mm mm
-1.2800000000000000e+02 1.2800000000000000e+02
-1.2800000000000000e+02 1.2800000000000000e+02
-1.2800000000000000e+02 1.2800000000000000e+02
ITEM: ATOMS id type x y z
1 1 -121.6 0 0
2 1 -120.65 0 0
3 1 -119.7 0 0
4 1 -118.75 0 0
5 1 -117.8 0 0
6 1 -116.85 0 0
7 1 -115.9 0 0
8 1 -114.95 0 0
9 1 -114 0 0
10 1 -113.05 0 0
11 1 -112.1 0 0
12 1 -111.15 0 0
13 1 -110.2 0 0
14 1 -109.25 0 0
15 1 -108.3 0 0
16 1 -107.35 0 0
17 1 -106.4 0 0
18 1 -105.45 0 0
19 1 -104.5 0 0
20 1 -103.55 0 0
21 1 -102.6 0 0
22 1 -101.65 0 0
23 1 -100.7 0 0
24 1 -99.75 0 0
25 1 -98.8 0 0
26 1 -97.85 0 0
27 1 -96.9 0 0
28 1 -95.95 0 0
29 1 -95 0 0
30 1 -94.05 0 0
31 1 -93.1 0 0
32 1 -92.15 0 0
33 1 -91.2 0 0
34 1 -90.25 0 0
35 1 -89.3 0 0
36 1 -88.35 0 0
37 1 -87.4 0 0
38 1 -86.45 0 0
39 1 -85.5 0 0
40 1 -84.55 0 0
41 1 -83.6 0 0
42 1 -82.65 0 0
43 1 -81.7 0 0
44 1 -80.75 0 0
45 1 -79.8 0 0
46 1 -78.85 0 0
47 1 -77.9 0 0
48 1 -76.95 0 0
49 1 -76 0 0
50 1 -75.05 0 0
51 1 -74.1 0 0
52 1 -73.15 0 0
53 1 -72.2 0 0
54 1 -71.25 0 0
55 1 -70.3 0 0
56 1 -69.35 0 0
57 1 -68.4 0 0
58 1 -67.45 0 0
59 1 -66.5 0 0
60 1 -65.55 0 0
61 1 -64.6 0 0
62 1 -63.65 0 0
63 1 -62.7 0 0
64 1 -61.75 0 0
65 1 -60.8 0 0
66 1 -59.85 0 0
67 1 -58.9 0 0
68 1 -57.95 0 0
69 1 -57 0 0
70 1 -56.05 0 0
71 1 -55.1 0 0
72 1 -54.15 0 0
73 1 -53.2 0 0
74 1 -52.25 0 0
75 1 -51.3 0 0
76 1 -50.35 0 0
77 1 -49.4 0 0
78 1 -48.45 0 0
79 1 -47.5 0 0
80 1 -46.55 0 0
81 1 -45.6 0 0
82 1 -44.65 0 0
83 1 -43.7 0 0
84 1 -42.75 0 0
85 1 -41.8 0 0
86 1 -40.85 0 0
87 1 -39.9 0 0
88 1 -38.95 0 0
89 1 -38 0 0
90 1 -37.05 0 0
91 1 -36.1 0 0
92 1 -35.15 0 0
93 1 -34.2 0 0
94 1 -33.25 0 0
95 1 -32.3 0 0
96 1 -31.35 0 0
97 1 -30.4 0 0
98 1 -29.45 0 0
99 1 -28.5 0 0
100 1 -27.55 0 0
101 1 -26.6 0 0
102 1 -25.65 0 0
103 1 -24.7 0 0
104 1 -23.75 0 0
105 1 -22.8 0 0
106 1 -21.85 0 0
107 1 -20.9 0 0
108 1 -19.95 0 0
109 1 -19 0 0
110 1 -18.05 0 0
111 1 -17.1 0 0
112 1 -16.15 0 0
113 1 -15.2 0 0
114 1 -14.25 0 0
115 1 -13.3 0 0
116 1 -12.35 0 0
117 1 -11.4 0 0
118 1 -10.45 0 0
119 1 -9.5 0 0
120 1 -8.55 0 0
121 1 -7.6 0 0
122 1 -6.65 0 0
123 1 -5.7 0 0
124 1 -4.75 0 0
125 1 -3.8 0 0
126 1 -2.85 0 0
127 1 -1.9 0 0
128 1 -0.95 0 0
129 1 0 0 0
130 1 0.95 0 0
131 1 1.9 0 0
132 1 2.85 0 0
133 1 3.8 0 0
134 1 4.75 0 0
135 1 5.7 0 0
136 1 6.65 0 0
137 1 7.6 0 0
138 1 8.55 0 0
139 1 9.5 0 0
140 1 10.45 0 0
141 1 11.4 0 0
142 1 12.35 0 0
143 1 13.3 0 0
144 1 14.25 0 0
145 1 15.2 0 0
146 1 16.15 0 0
147 1 17.1 0 0
148 1 18.05 0 0
149 1 19 0 0
150 1 19.95 0 0
151 1 20.9 0 0
152 1 21.85 0 0
153 1 22.8 0 0
154 1 23.75 0 0
155 1 24.7 0 0
156 1 25.65 0 0
157 1 26.6 0 0
158 1 27.55 0 0
159 1 28.5 0 0
160 1 29.45 0 0
161 1 30.4 0 0
162 1 31.35 0 0
163 1 32.3 0 0
164 1 33.25 0 0
165 1 34.2 0 0
166 1 35.15 0 0
167 1 36.1 0 0
168 1 37.05 0 0
169 1 38 0 0
170 1 38.95 0 0
171 1 39.9 0 0
172 1 40.85 0 0
173 1 41.8 0 0
174 1 42.75 0 0
175 1 43.7 0 0
176 1 44.65 0 0
177 1 45.6 0 0
178 1 46.55 0 0
179 1 47.5 0 0
180 1 48.45 0 0
181 1 49.4 0 0
182 1 50.35 0 0
183 1 51.3 0 0
184 1 52.25 0 0
185 1 53.2 0 0
186 1 54.15 0 0
187 1 55.1 0 0
188 1 56.05 0 0
189 1 57 0 0
190 1 57.95 0 0
191 1 58.9 0 0
192 1 59.85 0 0
193 1 60.8 0 0
194 1 61.75 0 0
195 1 62.7 0 0
196 1 63.65 0 0
197 1 64.6 0 0
198 1 65.55 0 0
199 1 66.5 0 0
200 1 67.45 0 0
201 1 68.4 0 0
202 1 69.35 0 0
203 1 70.3 0 0
204 1 71.25 0 0
205 1 72.2 0 0
206 1 73.15 0 0
207 1 74.1 0 0
208 1 75.05 0 0
209 1 76 0 0
210 1 76.95 0 0
211 1 77.9 0 0
212 1 78.85 0 0
213 1 79.8 0 0
214 1 80.75 0 0
215 1 81.7 0 0
216 1 82.65 0 0
217 1 83.6 0 0
218 1 84.55 0 0
219 1 85.5 0 0
220 1 86.45 0 0
221 1 87.4 0 0
222 1 88.35 0 0
223 1 89.3 0 0
224 1 90.25 0 0
225 1 91.2 0 0
226 1 92.15 0 0
227 1 93.1 0 0
228 1 94.05 0 0
229 1 95 0 0
230 1 95.95 0 0
231 1 96.9 0 0
232 1 97.85 0 0
233 1 98.8 0 0
234 1 99.75 0 0
235 1 100.7 0 0
236 1 101.65 0 0
237 1 102.6 0 0
238 1 103.55 0 0
239 1 104.5 0 0
240 1 105.45 0 0
241 1 106.4 0 0
242 1 107.35 0 0
243 1 108.3 0 0
244 1 109.25 0 0
245 1 110.2 0 0
246 1 111.15 0 0
247 1 112.1 0 0
248 1 113.05 0 0
249 1 114 0 0
250 1 114.95 0 0
251 1 115.9 0 0
252 1 116.85 0 0
253 1 117.8 0 0
254 1 118.75 0 0
255 1 119.7 0 0
256 1 120.65 0 0
ITEM: TIMESTEP
10000
ITEM: NUMBER OF ATOMS
256
ITEM: BOX BOUNDS mm mm mm
-1.2800000000000000e+02 1.2800000000000000e+02
-1.2800000000000000e+02 1.2800000000000000e+02
-1.2800000000000000e+02 1.2800000000000000e+02
ITEM: ATOMS id type x y z
1 1 -120.861 5.09363 -6.26056
2 1 -120.638 4.01134 -6.44074
3 1 -120.266 2.9995 -6.84765
4 1 -119.508 2.3179 -7.07341
5 1 -118.719 1.6206 -7.07427
6 1 -117.745 1.16474 -6.86734
7 1 -116.819 0.877288 -6.49993
8 1 -115.891 0.215429 -6.45451
9 1 -115.374 -0.40129 -5.91689
10 1 -114.835 -0.824235 -5.13583
11 1 -113.915 -1.05309 -4.76335
12 1 -112.818 -1.46453 -4.68933
13 1 -111.751 -1.96448 -4.50055
14 1 -110.755 -2.2573 -4.14758
15 1 -109.73 -2.75158 -3.99536
16 1 -108.741 -3.19261 -4.17537
17 1 -107.643 -3.59596 -4.01407
18 1 -106.518 -4.03013 -4.09743
19 1 -105.451 -4.31682 -4.16404
20 1 -104.368 -4.60995 -3.72881
21 1 -103.661 -4.95684 -3.21552
22 1 -102.957 -5.14605 -2.4273
23 1 -102.031 -5.27809 -1.75119
24 1 -101.009 -5.22799 -1.20008
25 1 -100.137 -4.86886 -0.969964
26 1 -99.15 -4.59761 -0.85971
27 1 -98.1827 -4.54641 -0.956588
28 1 -96.9852 -4.26031 -1.03051
29 1 -95.9457 -4.0817 -0.823917
30 1 -94.9051 -3.98439 -0.86768
31 1 -93.7754 -3.87352 -1.01036
32 1 -92.7363 -3.56192 -0.777755
33 1 -91.7057 -3.15531 -0.630838
34 1 -90.6051 -3.19408 -0.450916
35 1 -89.5919 -3.18329 -0.0144689
36 1 -88.6111 -3.32836 0.649856
37 1 -87.5347 -3.48622 0.581208
38 1 -86.5259 -3.60405 0.321812
39 1 -85.5036 -3.66357 0.0304463
40 1 -84.3994 -3.43887 0.122644
41 1 -83.4449 -2.82293 0.257075
42 1 -82.4212 -2.24808 0.394851
43 1 -81.6436 -1.63585 0.511536
44 1 -80.6 -1.12388 0.667536
45 1 -79.9214 -0.417628 1.12988
46 1 -79.1146 0.177471 1.52955
47 1 -78.2525 0.507156 2.16671
48 1 -77.3892 0.930478 2.74552
49 1 -76.1997 1.21265 3.02629
50 1 -75.0214 1.4829 3.51078
51 1 -74.1866 1.73599 4.16637
52 1 -73.5359 2.44761 4.66739
53 1 -72.5583 2.81036 4.62639
54 1 -71.5147 2.66622 4.49393
55 1 -70.4311 2.3078 4.4627
56 1 -69.3967 1.72665 4.27759
57 1 -68.2664 1.5574 4.20676
58 1 -67.1872 1.12875 4.11436
59 1 -66.2146 0.831335 4.26014
60 1 -65.2374 0.294748 4.61107
61 1 -64.2474 -0.0341133 4.82848
62 1 -63.1653 -0.323789 4.76025
63 1 -62.2584 -0.189012 4.40494
64 1 -61.3093 -0.117028 3.92357
65 1 -60.2996 -0.0843003 3.62348
66 1 -59.2955 -0.0131194 3.10666
67 1 -58.1284 -0.0653957 3.04358
68 1 -57.0599 -0.466205 2.67061
69 1 -56.1025 -0.93676 2.73739
70 1 -55.1878 -1.22281 2.86397
71 1 -54.1196 -1.4882 2.62939
72 1 -53.3247 -1.70382 2.28904
73 1 -52.2406 -2.0325 1.82116
74 1 -51.0938 -2.19521 1.86681
75 1 -50.0795 -2.3462 1.66013
76 1 -48.9879 -1.98951 1.4678
77 1 -47.9888 -2.04054 1.12696
78 1 -46.9131 -2.26548 0.992741
79 1 -45.7929 -2.5942 0.730137
80 1 -45.0543 -3.33579 0.449348
81 1 -44.5565 -3.69257 -0.364989
82 1 -43.8354 -4.20258 -1.0724
83 1 -42.8072 -4.43118 -1.34909
84 1 -41.7154 -4.45183 -1.63333
85 1 -40.6435 -4.70852 -1.81066
86 1 -39.8226 -5.05531 -2.25817
87 1 -38.8065 -5.27804 -2.43693
88 1 -38.0058 -5.182 -3.18334
89 1 -37.3396 -4.85126 -3.94294
90 1 -36.4929 -4.54566 -4.6008
91 1 -35.4562 -4.24173 -5.09651
92 1 -34.5273 -3.8939 -5.46277
93 1 -33.4224 -3.4136 -5.20044
94 1 -32.5084 -2.78826 -5.09745
95 1 -31.4953 -2.50459 -4.86282
96 1 -30.5417 -2.31507 -4.49971
97 1 -29.489 -2.44873 -4.37037
98 1 -28.5002 -2.30337 -4.59595
99 1 -27.4582 -1.93529 -4.76782
100 1 -26.295 -1.71922 -5.08441
101 1 -25.2213 -1.51208 -4.89263
102 1 -24.1325 -1.29939 -4.68336
103 1 -23.0042 -1.08125 -4.57465
104 1 -22.2768 -1.30179 -3.59132
105 1 -21.5251 -1.30627 -2.86898
106 1 -20.5583 -1.28232 -2.05474
107 1 -19.7725 -1.05024 -1.26833
108 1 -18.8943 -0.725157 -0.849295
109 1 -17.8738 -0.342365 -0.91326
110 1 -16.7783 0.133911 -0.860117
111 1 -15.7041 0.450178 -0.859643
112 1 -14.7782 0.888104 -1.14495
113 1 -13.8299 1.31397 -1.54981
114 1 -12.9448 1.55512 -2.08603
115 1 -12.0757 1.77675 -2.48256
116 1 -11.0112 2.11971 -2.68901
117 1 -9.92204 2.47203 -2.76388
118 1 -8.85017 2.58081 -2.63199
119 1 -7.73268 2.95338 -2.66607
120 1 -6.65047 2.98737 -2.56034
121 1 -5.64514 2.62272 -2.16205
122 1 -4.82353 2.26162 -1.47943
123 1 -3.79333 1.96442 -0.837263
124 1 -2.61627 1.67186 -0.591303
125 1 -1.58811 1.24358 -0.463729
126 1 -0.63941 1.06714 0.0364313
127 1 0.427266 1.05624 0.61021
128 1 1.2992 0.461252 0.78371
129 1 2.2597 0.208819 1.30043
130 1 2.96311 -0.555991 1.04949
131 1 3.70277 -1.17827 0.521965
132 1 4.83371 -1.7896 0.362828
133 1 5.82676 -1.87875 -0.101152
134 1 6.97885 -1.77488 -0.276676
135 1 7.92441 -2.08078 -0.694635
136 1 8.90342 -2.12536 -1.12892
137 1 9.75502 -2.13401 -1.84927
138 1 10.6512 -2.14433 -2.28267
139 1 11.6751 -2.39482 -2.56254
140 1 12.9197 -2.3851 -2.41662
141 1 13.8467 -1.80689 -2.39023
142 1 14.6847 -1.21793 -2.14104
143 1 15.6194 -0.583743 -1.82784
144 1 16.4367 -0.0691948 -1.1154
145 1 17.0926 0.399587 -0.327357
146 1 17.7601 0.939897 0.393527
147 1 18.4096 1.17875 1.27387
148 1 19.2771 1.49125 2.08278
149 1 20.1962 1.7852 2.74396
150 1 21.0948 2.28544 3.21951
151 1 22.0192 2.9172 3.50902
152 1 23.099 3.03756 3.96226
153 1 24.1394 2.99884 4.33658
154 1 25.0262 2.41574 4.51135
155 1 25.6263 1.52733 4.85199
156 1 26.5227 0.824322 4.63858
157 1 27.5167 0.318806 4.40435
158 1 28.3874 -0.15776 4.01557
159 1 29.114 -0.74878 3.54167
160 1 29.9653 -1.46646 3.12602
161 1 30.5248 -2.03925 2.39638
162 1 31.4178 -2.5126 1.88698
163 1 32.4561 -2.69628 1.53234
164 1 33.1412 -2.86436 0.543028
165 1 34.1024 -2.6793 0.0429237
166 1 35.0446 -2.78213 -0.605515
167 1 35.8852 -2.90934 -0.989054
168 1 36.4005 -2.93082 -1.9451
169 1 37.1778 -2.40685 -2.62779
170 1 38.1765 -2.22083 -3.08628
171 1 39.3196 -2.04148 -3.45034
172 1 40.3174 -1.74671 -3.06746
173 1 41.3886 -1.47533 -2.94778
174 1 42.2916 -0.990212 -2.84931
175 1 43.3888 -0.645225 -2.62252
176 1 44.265 -0.567786 -2.39009
177 1 45.3442 -0.294944 -2.01262
178 1 46.5702 -0.0221407 -1.8414
179 1 47.8135 0.210337 -1.8262
180 1 48.9331 0.277819 -1.47706
181 1 49.9059 0.605394 -1.15688
182 1 50.9606 0.607078 -0.590117
183 1 51.9764 0.677442 -0.255313
184 1 52.9827 1.01359 -0.0946577
185 1 54.0783 1.14477 0.369616
186 1 54.865 1.55417 0.786649
187 1 55.8366 1.88616 1.09234
188 1 56.9152 1.71756 0.926349
189 1 57.9969 1.60785 0.886251
190 1 59.1979 1.35593 0.682236
191 1 60.1827 0.99673 0.259033
192 1 61.0889 0.463889 0.0922568
193 1 61.8378 -0.0177959 -0.627452
194 1 62.4478 -0.24789 -1.36349
195 1 63.3542 -0.463586 -2.01827
196 1 64.3575 -0.763222 -2.30069
197 1 65.443 -1.10436 -2.63041
198 1 66.4917 -1.48103 -2.77485
199 1 67.5929 -1.38876 -3.05885
200 1 68.7117 -1.34754 -2.85072
201 1 69.8366 -1.28226 -2.4387
202 1 70.8864 -1.17776 -2.26479
203 1 72.0558 -0.93947 -2.33317
204 1 73.1484 -0.73462 -2.38935
205 1 74.2512 -0.687445 -2.48534
206 1 75.345 -0.678766 -2.76463
207 1 76.4591 -0.516142 -2.80777
208 1 77.3505 0.154575 -2.94741
209 1 78.3608 0.731721 -3.02926
210 1 79.3799 1.12851 -2.93805
211 1 80.4475 1.49944 -2.81573
212 1 81.448 1.5882 -2.71383
213 1 82.539 1.49824 -2.69352
214 1 83.6413 1.70634 -2.56971
215 1 84.8229 1.71397 -2.1942
216 1 85.8557 1.43217 -2.2941
217 1 87.0448 1.62059 -2.33793
218 1 88.1322 1.97701 -2.36406
219 1 89.2041 2.43452 -2.30944
220 1 89.7671 3.41267 -2.19054
221 1 90.5075 4.21938 -1.97528
222 1 91.3474 5.11555 -1.88131
223 1 92.2116 5.71202 -2.05225
224 1 93.2399 6.18479 -2.01501
225 1 94.3156 6.27175 -1.83917
226 1 95.2617 6.62028 -1.56064
227 1 96.3151 6.78986 -1.2615
228 1 97.5162 6.70437 -1.32473
229 1 98.5128 6.58841 -1.2137
230 1 99.6855 6.45498 -1.11732
231 1 100.82 6.22812 -1.32709
232 1 101.961 5.93669 -1.036
233 1 103.092 5.68936 -1.0677
234 1 104.026 5.0931 -1.25174
235 1 105.052 4.99637 -1.09493
236 1 106.165 4.66522 -1.03974
237 1 107.186 4.31821 -0.821746
238 1 108.237 3.98387 -0.225079
239 1 109.274 3.51354 -0.126393
240 1 110.426 3.38726 -0.134282
241 1 111.621 3.2485 -0.100572
242 1 112.734 3.34122 -0.156413
243 1 113.716 2.94735 -0.199707
244 1 114.462 2.66395 -0.669514
245 1 115.377 2.37669 -1.02866
246 1 116.45 2.00074 -1.28104
247 1 117.622 1.75639 -1.43219
248 1 118.687 1.4654 -1.61349
249 1 119.508 0.911603 -2.0216
250 1 120.206 -0.0381176 -2.36437
251 1 120.539 -1.01047 -2.78878
252 1 121.167 -1.63402 -3.31531
253 1 122.083 -1.99436 -3.89384
254 1 122.926 -2.47613 -4.4114
255 1 123.863 -2.90024 -4.87011
256 1 124.53 -3.30741 -5.58612
ITEM: TIMESTEP
20000
ITEM: NUMBER OF ATOMS
256
ITEM: BOX BOUNDS mm mm mm
-1.2800000000000000e+02 1.2800000000000000e+02
-1.2800000000000000e+02 1.2800000000000000e+02
-1.2800000000000000e+02 1.2800000000000000e+02
ITEM: ATOMS id type x y z
1 1 -107.45 -3.35858 -2.475
2 1 -106.687 -3.27042 -3.05092
3 1 -105.925 -3.45353 -3.54369
4 1 -105.09 -3.59556 -3.99567
5 1 -104.339 -4.01897 -4.29724
6 1 -103.59 -4.31283 -4.73977
7 1 -102.751 -4.44891 -5.16441
8 1 -101.97 -4.47733 -5.75843
9 1 -101.08 -4.35834 -5.99304
10 1 -100.271 -4.66426 -6.28879
11 1 -99.334 -4.73207 -6.61613
12 1 -98.4297 -4.7927 -6.92171
13 1 -97.5177 -4.86008 -7.03517
14 1 -96.6848 -4.92449 -7.42952
15 1 -95.8171 -4.94387 -7.7519
16 1 -94.9418 -5.02536 -7.96398
17 1 -94.0321 -5.04432 -8.161
18 1 -93.1276 -4.87108 -8.3889
19 1 -92.3063 -4.39226 -8.41422
20 1 -91.6758 -3.64198 -8.37608
21 1 -90.8722 -3.11822 -8.40348
22 1 -90.001 -2.71812 -8.53141
23 1 -89.2755 -2.70013 -7.93522
24 1 -88.3719 -2.45811 -7.62994
25 1 -87.5599 -2.19618 -7.37801
26 1 -86.8378 -1.85844 -6.89066
27 1 -86.2891 -1.52228 -6.22974
28 1 -85.5486 -1.13879 -5.75337
29 1 -84.6427 -1.08003 -5.38911
30 1 -83.8112 -1.17837 -5.04225
31 1 -82.8999 -1.3106 -4.93063
32 1 -81.9316 -1.12882 -4.91801
33 1 -80.9375 -1.24337 -4.8059
34 1 -80.0616 -1.54022 -4.65368
35 1 -79.0729 -1.73379 -4.63417
36 1 -78.1925 -2.01172 -4.82097
37 1 -77.3631 -2.0999 -4.48328
38 1 -76.4832 -2.10478 -4.06448
39 1 -75.7219 -2.20274 -3.48397
40 1 -74.9825 -2.34028 -2.94396
41 1 -74.1821 -2.48677 -2.49443
42 1 -73.3812 -2.85821 -2.15409
43 1 -72.6426 -3.3379 -1.91945
44 1 -71.7611 -3.58942 -1.60591
45 1 -70.939 -3.76965 -1.19344
46 1 -70.0287 -3.67724 -0.799127
47 1 -69.1414 -3.313 -0.86237
48 1 -68.4599 -2.78777 -0.594346
49 1 -67.8028 -2.26623 -0.14652
50 1 -66.9743 -1.81215 -0.00915998
51 1 -66.0666 -1.62865 -0.310676
52 1 -65.1949 -1.83722 -0.634412
53 1 -64.2502 -1.92558 -0.926963
54 1 -63.3482 -1.98574 -1.17386
55 1 -62.4079 -1.9394 -1.30468
56 1 -61.5072 -1.99456 -1.36456
57 1 -60.5795 -2.06447 -1.53091
58 1 -59.7175 -1.64384 -1.60842
59 1 -58.9362 -1.25573 -1.81469
60 1 -58.1776 -0.76948 -1.9248
61 1 -57.2454 -0.670526 -2.04624
62 1 -56.4159 -0.613206 -1.58167
63 1 -55.8586 -0.709752 -0.841537
64 1 -55.3596 -0.864046 -0.102998
65 1 -54.7911 -1.05552 0.682078
66 1 -53.8808 -1.16482 0.969157
67 1 -52.9564 -1.08047 0.927205
68 1 -52.0148 -1.27522 1.04363
69 1 -51.0717 -1.48333 1.15564
70 1 -50.157 -1.70358 0.987974
71 1 -49.2916 -1.81591 0.738863
72 1 -48.4104 -1.83935 0.336991
73 1 -47.7083 -2.36055 -0.0471542
74 1 -47.2464 -2.97264 -0.609736
75 1 -46.4083 -3.30125 -0.913885
76 1 -45.5631 -3.58798 -1.11229
77 1 -44.7778 -3.26397 -1.56567
78 1 -43.9066 -3.11739 -1.83133
79 1 -42.9833 -3.09152 -1.59507
80 1 -42.0058 -3.23964 -1.66063
81 1 -41.1302 -3.39317 -2.05319
82 1 -40.2881 -3.37676 -2.51983
83 1 -39.4941 -3.13529 -3.04779
84 1 -38.6717 -3.04574 -3.53768
85 1 -37.6925 -2.95445 -3.64391
86 1 -36.7865 -2.63491 -3.75087
87 1 -35.8348 -2.53921 -3.90414
88 1 -34.8945 -2.43815 -3.7842
89 1 -33.952 -2.48138 -3.93397
90 1 -33.0566 -2.59686 -3.72324
91 1 -32.1796 -2.64799 -3.44764
92 1 -31.2469 -2.73449 -3.19022
93 1 -30.3443 -2.77475 -2.90731
94 1 -29.4687 -2.88638 -2.55293
95 1 -28.5458 -3.04605 -2.20954
96 1 -27.6662 -3.2126 -1.92819
97 1 -26.8183 -2.87925 -1.79383
98 1 -25.9379 -2.49063 -1.79616
99 1 -25.2276 -1.94119 -1.93376
100 1 -24.394 -1.638 -2.24956
101 1 -23.5745 -1.17387 -2.27782
102 1 -22.6687 -1.0048 -2.33177
103 1 -21.7162 -0.800146 -2.52526
104 1 -20.9219 -0.565438 -2.8239
105 1 -20.1049 -0.239834 -3.07611
106 1 -19.1541 -0.303651 -3.28819
107 1 -18.2374 -0.178293 -3.11194
108 1 -17.4461 0.281036 -3.2024
109 1 -16.6085 0.628927 -3.40735
110 1 -15.6431 0.670316 -3.30114
111 1 -14.7433 0.905298 -3.27718
112 1 -13.8298 1.14728 -3.20564
113 1 -12.9403 1.37834 -3.36118
114 1 -12.0673 1.33572 -3.29774
115 1 -11.1244 1.49211 -3.14557
116 1 -10.2607 1.71511 -2.87861
117 1 -9.36077 1.89434 -2.65479
118 1 -8.44755 1.88451 -2.51961
119 1 -7.50121 1.79801 -2.65616
120 1 -6.68248 1.38307 -2.6201
121 1 -5.91778 0.83479 -2.72911
122 1 -4.97286 0.648967 -2.78381
123 1 -4.061 0.784612 -2.88322
124 1 -3.13391 0.922674 -2.83282
125 1 -2.20867 0.692996 -2.72434
126 1 -1.36011 0.445232 -2.36615
127 1 -0.645451 -0.0873382 -2.12636
128 1 0.213299 -0.227804 -1.89675
129 1 1.00293 -0.683599 -1.72684
130 1 1.71 -0.618616 -1.03973
131 1 2.48241 -0.94568 -0.588281
132 1 3.38059 -1.06311 -0.349603
133 1 4.2508 -1.14984 0.00528061
134 1 5.21263 -1.21141 0.214987
135 1 6.04929 -0.943821 0.484449
136 1 6.9686 -0.856054 0.743406
137 1 7.82795 -0.501832 0.949702
138 1 8.73643 -0.204036 1.05279
139 1 9.62642 0.0920964 1.12617
140 1 10.4609 0.390875 0.81737
141 1 11.3108 0.717564 0.551167
142 1 12.2455 0.678044 0.33314
143 1 13.1718 0.513619 0.336715
144 1 14.0954 0.264384 0.511933
145 1 14.992 0.00847182 0.581958
146 1 15.9125 -0.268104 0.821452
147 1 16.8093 -0.320077 1.15605
148 1 17.7312 -0.0258282 0.993365
149 1 18.5136 0.480458 0.741946
150 1 19.3204 0.781676 0.422134
151 1 20.1794 0.998192 -0.0738483
152 1 20.9588 1.5556 -0.447256
153 1 21.803 2.00235 -0.487894
154 1 22.6071 2.47683 -0.546639
155 1 23.4299 2.79879 -0.708244
156 1 24.3666 3.07934 -0.786159
157 1 25.267 3.23512 -1.11592
158 1 26.1989 2.96119 -1.29587
159 1 27.0471 2.70572 -1.4955
160 1 27.7508 2.07193 -1.82494
161 1 28.3582 1.33027 -1.94157
162 1 28.9627 0.480994 -1.84932
163 1 29.8745 0.295399 -1.69122
164 1 30.8098 0.131554 -1.79597
165 1 31.6915 0.105835 -2.15441
166 1 32.6419 0.245124 -2.39219
167 1 33.6068 0.146788 -2.3697
168 1 34.4575 -0.11432 -2.62223
169 1 35.4469 -0.161532 -2.72916
170 1 36.3503 -0.00820715 -2.97486
171 1 37.2841 -0.0795836 -3.08977
172 1 38.1296 -0.0591736 -2.74026
173 1 38.8715 0.0285453 -2.206
174 1 39.6009 -0.24026 -1.65173
175 1 40.4541 -0.583723 -1.69715
176 1 41.3898 -0.713773 -1.92021
177 1 42.2362 -0.864402 -2.35332
178 1 43.1279 -1.15575 -2.47635
179 1 44.047 -1.22007 -2.63533
180 1 44.9875 -1.28016 -2.82223
181 1 45.8405 -0.98883 -3.0646
182 1 46.663 -0.699694 -3.32331
183 1 47.5528 -0.31536 -3.37709
184 1 48.5278 -0.194656 -3.47507
185 1 49.4838 -0.0689766 -3.32814
186 1 50.4122 0.0261145 -3.57594
187 1 51.34 0.240747 -3.54182
188 1 52.2457 0.413074 -3.65171
189 1 53.1596 0.557175 -3.59747
190 1 54.0053 0.954934 -3.44222
191 1 54.7921 1.41837 -3.15752
192 1 55.6431 1.75891 -2.84945
193 1 56.503 2.02443 -2.74319
194 1 57.3552 2.37018 -2.45444
195 1 58.1586 2.82944 -2.46215
196 1 59.0586 3.04804 -2.64788
197 1 59.8544 3.22089 -3.15685
198 1 60.7904 3.17362 -3.32788
199 1 61.6877 3.36462 -3.41742
200 1 62.6075 3.55416 -3.48255
201 1 63.5361 3.61224 -3.60262
202 1 64.5395 3.56328 -3.44428
203 1 65.3991 3.61231 -3.13032
204 1 66.1859 3.53384 -2.56456
205 1 66.8627 3.49867 -1.8719
206 1 67.5159 3.9277 -1.34629
207 1 68.1781 4.27377 -0.768744
208 1 68.8554 4.62286 -0.236288
209 1 69.5687 4.97065 0.230526
210 1 70.4856 5.20091 0.480818
211 1 71.1738 5.68663 0.966241
212 1 71.9016 6.14519 1.27246
213 1 72.6166 6.78143 1.19718
214 1 73.3621 7.31747 1.017
215 1 74.0923 7.90569 0.886971
216 1 74.9574 8.06326 0.595283
217 1 75.7839 8.38711 0.141052
218 1 76.6976 8.47075 -0.062747
219 1 77.6085 8.70065 -0.185947
220 1 78.4863 9.09177 -0.199834
221 1 79.2557 9.58807 -0.214131
222 1 80.0626 10.0574 -0.489626
223 1 80.9195 10.434 -0.427915
224 1 81.9011 10.3044 -0.497002
225 1 82.8522 10.2674 -0.443744
226 1 83.7859 10.1466 -0.510871
227 1 84.7023 10.2051 -0.798092
228 1 85.5294 10.0597 -1.2279
229 1 86.3354 9.89261 -1.75456
230 1 87.1288 9.95702 -2.23289
231 1 87.7874 10.0737 -2.83961
232 1 88.4562 9.84005 -3.47089
233 1 89.2882 9.6326 -3.92517
234 1 90.0711 9.1886 -4.19124
235 1 90.9719 8.87064 -4.20845
236 1 91.8684 8.57822 -4.13065
237 1 92.7511 8.47952 -4.39835
238 1 93.5319 8.19721 -4.77605
239 1 94.3263 7.72233 -4.97819
240 1 94.9293 7.03042 -5.13083
241 1 95.8451 6.78485 -5.05239
242 1 96.7415 6.58766 -5.05918
243 1 97.6507 6.31024 -5.02323
244 1 98.5184 6.07421 -4.63387
245 1 99.2813 5.50911 -4.77894
246 1 100.099 5.1388 -5.03371
247 1 100.96 4.85803 -5.19346
248 1 101.878 4.94734 -5.24277
249 1 102.819 5.27875 -5.40246
250 1 103.67 5.41339 -5.58021
251 1 104.575 5.68234 -5.68481
252 1 105.27 6.33476 -5.7467
253 1 105.89 6.87161 -6.12965
254 1 106.289 7.32418 -6.81634
255 1 106.768 8.15136 -7.14965
256 1 107.403 8.79459 -7.53088
