ITEM: TIMESTEP
2040000
ITEM: NUMBER OF ATOMS
256
ITEM: BOX BOUNDS mm mm mm
-1.2800000000000000e+02 1.2800000000000000e+02
-1.2800000000000000e+02 1.2800000000000000e+02
-1.2800000000000000e+02 1.2800000000000000e+02
ITEM: ATOMS id type x y z
1 1 -29.9289 3.87033 -1.33761
2 1 -29.8357 4.26272 -0.491598
3 1 -29.5602 4.94017 0.146782
4 1 -29.0209 5.59073 -0.319377
5 1 -28.881 6.29801 -0.936473
6 1 -29.3327 6.07749 -1.73097
7 1 -29.3145 5.83891 -2.65877
8 1 -28.8885 6.02797 -3.46722
9 1 -29.1555 5.72908 -4.37616
10 1 -29.0845 4.81565 -4.03012
11 1 -29.4611 5.04964 -3.22834
12 1 -30.3403 5.36438 -3.28784
13 1 -31.2911 5.69731 -3.45835
14 1 -31.7776 6.39266 -3.06372
15 1 -31.015 6.97362 -2.97631
16 1 -31.0933 7.59955 -2.27325
17 1 -31.3717 8.5326 -2.28254
18 1 -30.7581 9.08625 -2.73151
19 1 -30.8941 9.89064 -2.26958
20 1 -31.1097 10.7829 -2.58433
21 1 -30.6606 11.1521 -1.88162
22 1 -31.1041 11.1663 -1.02852
23 1 -31.1433 11.8664 -0.414855
24 1 -31.0047 12.0198 0.532899
25 1 -31.4968 12.7146 1.02346
26 1 -31.8017 13.5065 0.61357
27 1 -32.6889 13.4608 0.830601
28 1 -33.5904 13.8058 0.744014
29 1 -33.0741 14.3727 1.26009
30 1 -33.0098 14.6194 2.12109
31 1 -33.3682 13.9533 2.68492
32 1 -33.9043 13.5787 3.34777
33 1 -33.7668 12.6541 3.24498
34 1 -33.2103 12.3442 4.01476
35 1 -32.3207 12.3767 4.31191
36 1 -32.0082 12.0356 3.45999
37 1 -32.8498 11.6307 3.30217
38 1 -32.7595 10.7041 3.32027
39 1 -32.159 10.08 3.7445
40 1 -31.7759 9.22887 3.95573
41 1 -32.2258 8.52165 3.50395
42 1 -32.7989 8.73178 4.23016
43 1 -32.4032 8.21543 4.91703
44 1 -32.6642 7.78307 5.71415
45 1 -32.1333 7.82669 6.52574
46 1 -31.7175 8.53373 7.02652
47 1 -31.051 7.88651 7.22228
48 1 -31.5912 7.11729 7.31516
49 1 -30.7735 6.64414 7.40497
50 1 -30.2638 7.20411 6.96152
51 1 -30.0912 7.7229 7.76152
52 1 -30.2483 8.0362 8.65603
53 1 -29.4136 8.08818 9.11413
54 1 -29.8635 7.43202 9.70438
55 1 -29.8865 6.48407 9.85181
56 1 -29.1042 5.93719 9.85178
57 1 -28.3315 6.2906 10.1283
58 1 -28.0423 6.63834 10.9095
59 1 -27.6223 7.43489 10.5735
60 1 -27.7379 8.44041 10.6211
61 1 -28.4726 8.827 11.1102
62 1 -29.3506 8.83385 11.5591
63 1 -29.988 8.17488 11.8279
64 1 -29.4981 8.39823 12.5839
65 1 -28.8424 7.86917 13.0216
66 1 -29.3555 7.05675 13.0601
67 1 -30.062 6.60822 13.4052
68 1 -30.3542 7.03067 12.599
69 1 -30.3196 6.19314 12.2746
70 1 -30.2092 5.85447 11.4665
71 1 -30.45 5.09192 10.9391
72 1 -30.251 4.17901 10.8112
73 1 -30.1437 3.816 10.0025
74 1 -29.4319 4.37581 10.1905
75 1 -29.165 3.51823 10.444
76 1 -28.8232 2.92797 9.88591
77 1 -28.8121 1.9323 9.9107
78 1 -28.9491 2.21632 10.793
79 1 -28.268 2.88434 10.9448
80 1 -27.512 2.59595 10.4757
81 1 -26.6602 2.95624 10.649
82 1 -26.3859 3.77303 11.0263
83 1 -25.5302 3.25551 10.9809
84 1 -25.1836 2.70183 10.2449
85 1 -25.2232 1.93052 10.7904
86 1 -25.7571 1.08952 10.7615
87 1 -26.4709 0.968976 10.1609
88 1 -26.7037 0.336585 9.52493
89 1 -26.1733 -0.424346 9.54651
90 1 -25.7975 -1.3054 9.36518
91 1 -25.2579 -1.20332 8.53906
92 1 -25.3576 -0.644527 7.74652
93 1 -26.0937 -0.945729 7.25951
94 1 -26.0834 0.0144577 6.98913
95 1 -26.4234 -0.205743 6.12495
96 1 -25.9981 0.532564 5.77583
97 1 -25.2037 0.561224 5.33454
98 1 -24.2556 0.494971 5.31829
99 1 -24.5115 0.079732 4.52409
100 1 -24.0035 -0.61028 4.23357
101 1 -24.4356 -0.143307 3.48355
102 1 -25.1334 0.466489 3.76773
103 1 -24.5132 1.15935 3.41726
104 1 -24.4589 2.01375 2.98534
105 1 -23.6691 1.85762 2.50746
106 1 -23.1651 2.2695 1.85067
107 1 -23.4917 3.10076 2.17571
108 1 -23.2601 4.02022 2.36264
109 1 -23.5646 4.68545 2.94259
110 1 -24.2314 5.26566 3.37575
111 1 -24.439 5.12101 4.28049
112 1 -24.6709 5.72035 4.94913
113 1 -25.3996 5.35322 5.48649
114 1 -25.8039 5.31096 4.6429
115 1 -26.6057 5.50767 5.14128
116 1 -26.757 6.3014 5.51027
117 1 -26.2348 6.49435 6.37039
118 1 -25.391 6.93747 6.64702
119 1 -24.5352 7.20162 6.34217
120 1 -24.7734 7.46989 5.44487
121 1 -24.409 8.188 4.88251
122 1 -24.8569 7.80133 4.22179
123 1 -25.0803 8.49448 3.62956
124 1 -24.6651 9.31694 3.5586
125 1 -24.7418 10.2049 3.2006
126 1 -25.5147 10.5768 2.80528
127 1 -24.9917 11.2655 2.49558
128 1 -24.4746 11.133 1.74592
129 1 -23.5596 11.0949 1.81607
130 1 -23.5039 11.483 0.948227
131 1 -22.8445 10.8171 0.739174
132 1 -22.015 10.5562 0.537145
133 1 -21.5039 10.1206 1.1087
134 1 -21.3121 11.0205 1.34266
135 1 -20.668 11.2182 2.06716
136 1 -21.349 11.6412 2.51632
137 1 -20.6714 11.8313 3.13983
138 1 -20.1919 11.0357 3.05716
139 1 -20.6466 10.3523 3.49893
140 1 -20.0327 10.6646 4.18485
141 1 -19.6241 10.9272 5.0751
142 1 -18.8965 10.3277 5.17154
143 1 -18.2239 10.5189 5.80011
144 1 -17.9495 10.5582 6.74971
145 1 -17.6776 9.99141 7.40166
146 1 -18.3834 9.45271 7.63769
147 1 -19.1597 9.94675 7.38132
148 1 -19.8167 9.59075 7.93908
149 1 -19.1882 9.28123 8.57815
150 1 -19.2536 9.34534 9.48099
151 1 -19.7608 9.3351 10.259
152 1 -19.3595 10.1214 10.5235
153 1 -18.4945 9.82991 10.3171
154 1 -17.9104 9.80152 11.0965
155 1 -17.2826 10.518 11.1629
156 1 -16.6858 10.1872 10.5109
157 1 -15.8286 10.5517 10.5814
158 1 -15.2086 10.1909 10.0195
159 1 -15.3585 9.33403 10.5414
160 1 -14.56 9.45583 11.0237
161 1 -13.7273 9.38337 11.4318
162 1 -13.5864 9.93164 12.2238
163 1 -13.0787 10.3774 12.8807
164 1 -13.863 10.2462 13.3691
165 1 -14.5143 10.3335 12.6858
166 1 -15.3987 10.2846 12.7376
167 1 -15.4637 9.42817 12.3783
168 1 -15.2547 8.60572 12.795
169 1 -15.3323 8.24443 11.9033
170 1 -15.6063 8.36554 11.0182
171 1 -16.2012 8.17227 10.3234
172 1 -15.7466 7.52149 9.8414
173 1 -16.6 7.17118 10.1441
174 1 -16.8653 6.62479 10.886
175 1 -16.1266 6.99228 11.3716
176 1 -15.1478 6.83438 11.3568
177 1 -14.3522 7.16681 10.9009
178 1 -13.5084 6.77242 11.0758
179 1 -12.8611 6.33301 10.5975
180 1 -11.9102 6.27534 10.3569
181 1 -11.3247 6.60055 11.0705
182 1 -10.8582 5.96167 11.4805
183 1 -10.1563 6.25959 10.9248
184 1 -10.0509 7.1724 10.6016
185 1 -10.7098 7.7841 10.7802
186 1 -11.2442 8.06564 11.4448
187 1 -11.9866 7.72783 10.8751
188 1 -11.9244 7.82786 9.90162
189 1 -11.849 8.62561 10.4317
190 1 -11.5037 9.39535 10.8633
191 1 -10.6251 9.16818 11.0851
192 1 -9.81914 9.44111 11.5328
193 1 -9.59687 8.57133 11.8484
194 1 -8.89692 8.09131 12.525
195 1 -9.49336 8.47865 13.197
196 1 -8.81885 8.51413 13.8073
197 1 -8.33401 8.00752 14.4981
198 1 -8.04853 8.07484 15.3416
199 1 -7.60843 8.90556 15.4071
200 1 -6.89629 8.65128 14.879
201 1 -6.02095 8.55369 14.4911
202 1 -5.72626 9.45652 14.3431
203 1 -6.46965 10.0333 14.2964
204 1 -6.95924 10.6767 13.9123
205 1 -6.38687 11.4257 14.0565
206 1 -6.37514 12.3652 14.1248
207 1 -6.78617 13.1793 14.4771
208 1 -7.37091 13.968 14.5123
209 1 -6.73528 14.3712 15.0761
210 1 -7.3307 15.1206 14.8513
211 1 -6.73694 15.8451 15.0844
212 1 -5.9989 16.4671 15.2451
213 1 -6.43945 17.1105 14.719
214 1 -5.67969 17.4759 14.2889
215 1 -5.24337 17.1181 13.5173
216 1 -4.908 17.9396 13.3994
217 1 -4.02369 17.7766 13.3891
218 1 -3.26825 17.9583 13.9258
219 1 -3.33926 17.0317 13.9601
220 1 -2.78395 16.4265 13.6112
221 1 -2.63595 16.9779 12.8695
222 1 -3.52483 17.1629 12.685
223 1 -4.38007 17.3344 12.2515
224 1 -4.95169 17.1062 11.5257
225 1 -4.9801 16.1881 11.6062
226 1 -5.83895 15.9689 11.9286
227 1 -6.64761 15.5701 12.2028
228 1 -7.13832 15.6503 11.4495
229 1 -7.2709 16.5559 11.4633
230 1 -8.18138 16.6578 11.5258
231 1 -7.88787 17.3759 11.9584
232 1 -8.21902 18.2433 11.8516
233 1 -7.64465 18.9964 12.0208
234 1 -7.06942 19.3375 12.7441
235 1 -6.71316 20.1145 12.4983
236 1 -7.1701 20.495 13.2654
237 1 -7.88029 19.9928 13.5134
238 1 -8.2391 20.8408 13.1754
239 1 -8.92361 20.3746 13.6829
240 1 -9.40441 19.746 14.1652
241 1 -8.77352 19.3609 13.545
242 1 -8.57667 18.5707 14.0775
243 1 -7.98915 17.9174 14.4862
244 1 -8.30544 17.2159 15.0182
245 1 -8.66698 16.6837 15.7369
246 1 -9.57878 16.7087 15.8508
247 1 -10.2657 16.3988 15.2253
248 1 -10.9253 17.0401 14.948
249 1 -11.6002 16.4691 15.3086
250 1 -12.5 16.265 15.4992
251 1 -13.2812 15.7045 15.4576
252 1 -13.9838 15.3388 14.9157
253 1 -14.3841 15.6225 14.0815
254 1 -14.8571 14.8904 14.4255
255 1 -15.4906 14.2863 14.7799
256 1 -16.1583 13.8915 15.2432
ITEM: TIMESTEP
2050000
ITEM: NUMBER OF ATOMS
256
ITEM: BOX BOUNDS mm mm mm
-1.2800000000000000e+02 1.2800000000000000e+02
-1.2800000000000000e+02 1.2800000000000000e+02
-1.2800000000000000e+02 1.2800000000000000e+02
ITEM: ATOMS id type x y z
1 1 -31.263 3.06401 -6.03008
2 1 -31.2966 2.31545 -5.52601
3 1 -30.6659 1.75839 -5.88284
4 1 -30.282 1.18318 -5.24419
5 1 -30.97 0.466309 -5.27146
6 1 -31.2211 0.732567 -4.40732
7 1 -31.4282 1.60469 -4.27392
8 1 -30.52 1.44425 -4.09164
9 1 -29.7675 1.94162 -4.42219
10 1 -28.903 2.00466 -4.91718
11 1 -28.0476 2.36317 -5.23845
12 1 -27.4022 2.99048 -5.04111
13 1 -27.4196 3.96256 -5.22306
14 1 -26.4945 3.80501 -5.41034
15 1 -25.9174 4.42153 -5.00258
16 1 -24.989 4.23517 -4.99737
17 1 -24.9927 5.14894 -4.84961
18 1 -25.3218 5.8725 -4.39564
19 1 -25.3891 5.62302 -3.47002
20 1 -25.5249 5.05826 -2.76039
21 1 -25.6013 5.8911 -2.26777
22 1 -25.6547 6.66738 -1.68093
23 1 -25.6272 6.31517 -0.812081
24 1 -26.5545 6.31871 -0.754644
25 1 -27.3628 6.42268 -1.18307
26 1 -28.1474 6.15032 -1.63963
27 1 -28.9699 6.66801 -1.66847
28 1 -29.7679 6.87763 -1.30095
29 1 -29.2264 7.31857 -0.69966
30 1 -29.6232 8.07796 -0.93512
31 1 -30.4817 7.86361 -0.617838
32 1 -31.4058 8.05696 -0.744469
33 1 -32.1356 8.59339 -0.472153
34 1 -32.1347 9.45117 -0.075339
35 1 -31.6391 9.57573 0.700699
36 1 -31.0085 9.53742 1.42801
37 1 -31.1646 9.68772 2.365
38 1 -30.5831 9.40116 3.02108
39 1 -29.7207 9.12364 3.38291
40 1 -29.0394 9.60373 3.78003
41 1 -28.2598 9.71062 4.34715
42 1 -27.3813 9.8605 4.5322
43 1 -27.5532 9.80424 5.4572
44 1 -28.0302 10.0094 6.22783
45 1 -28.618 10.5748 6.65657
46 1 -28.7399 10.5174 7.58313
47 1 -28.8609 9.8099 8.24854
48 1 -29.7303 10.0363 8.57993
49 1 -29.6097 9.64755 9.39662
50 1 -29.0091 8.94668 9.54684
51 1 -28.1026 8.61283 9.60814
52 1 -28.199 8.18304 10.5214
53 1 -28.6082 7.30399 10.6078
54 1 -28.8499 7.29284 9.67117
55 1 -28.4977 6.63061 9.12842
56 1 -29.3597 6.63108 8.77332
57 1 -30.1509 6.446 9.1852
58 1 -31.0528 6.30161 9.59141
59 1 -30.6528 6.02965 10.3884
60 1 -30.7825 5.24194 10.9436
61 1 -31.087 5.17238 11.8548
62 1 -30.5213 4.81317 12.565
63 1 -30.8892 3.98875 12.0974
64 1 -31.3719 4.05772 11.3072
65 1 -31.6004 4.44934 10.4541
66 1 -31.7463 5.13204 9.8182
67 1 -31.4716 5.48305 8.99054
68 1 -31.7362 5.34295 8.09889
69 1 -31.3353 5.5824 7.29431
70 1 -30.3751 5.61739 7.19228
71 1 -29.9051 4.8267 6.96135
72 1 -29.2615 4.86291 6.3072
73 1 -28.6599 4.24006 6.68589
74 1 -28.0474 3.46907 6.34889
75 1 -27.366 3.90556 6.78072
76 1 -27.1851 4.42184 7.52923
77 1 -26.7748 3.82488 8.17477
78 1 -27.2253 3.02563 8.12601
79 1 -28.106 3.43715 8.41281
80 1 -28.1723 2.52949 8.1942
81 1 -28.6479 1.69589 8.18928
82 1 -29.3978 2.17297 8.6008
83 1 -30.1493 2.6327 9.02149
84 1 -30.6306 2.18694 9.70763
85 1 -29.9594 2.1135 10.3553
86 1 -29.413 1.48137 9.92135
87 1 -29.1842 0.692219 10.3428
88 1 -28.3355 0.81468 9.95417
89 1 -27.7902 0.448896 9.27719
90 1 -27.1468 0.813111 9.90741
91 1 -26.6448 0.022202 10.1292
92 1 -26.1602 -0.671311 10.5877
93 1 -26.2977 -1.51244 11.0067
94 1 -25.435 -1.92082 10.8527
95 1 -25.4039 -2.08432 9.90817
96 1 -26.1571 -1.71934 9.42638
97 1 -26.6743 -1.94464 8.69526
98 1 -27.632 -1.60935 8.76912
99 1 -28.2742 -1.28485 8.17003
100 1 -28.6038 -1.91943 7.55007
101 1 -27.8216 -1.70259 6.98169
102 1 -27.0891 -1.29454 6.56248
103 1 -26.9391 -1.47937 5.68788
104 1 -26.3156 -0.916812 5.37225
105 1 -25.9946 -0.583422 4.56925
106 1 -26.3171 0.3089 4.84332
107 1 -26.4004 1.25204 5.01686
108 1 -26.341 2.04312 5.4027
109 1 -25.8999 2.51388 6.10922
110 1 -25.1858 2.94859 5.56337
111 1 -25.1149 2.58756 4.66792
112 1 -24.5423 3.31826 4.51584
113 1 -25.276 3.80475 4.7989
114 1 -26.0365 3.46081 5.20657
115 1 -26.3279 3.89262 4.46022
116 1 -26.9732 3.42783 3.95918
117 1 -27.3447 3.4754 3.12777
118 1 -28.0827 3.94662 3.45773
119 1 -27.9697 4.84755 3.65252
120 1 -27.4623 5.57082 3.31446
121 1 -27.0168 6.34409 3.109
122 1 -26.1142 6.48677 3.3874
123 1 -25.9596 7.2563 3.9959
124 1 -26.5558 7.35617 4.66869
125 1 -27.1381 8.03688 4.92414
126 1 -26.8303 8.35783 5.74953
127 1 -25.9558 8.5238 5.51299
128 1 -25.6678 7.60945 5.54133
129 1 -25.175 6.89374 6.01544
130 1 -24.9241 7.10228 5.11632
131 1 -24.6639 6.28452 5.30405
132 1 -23.7796 5.8869 5.40239
133 1 -23.1636 6.33286 6.0095
134 1 -22.6458 7.12742 5.68679
135 1 -22.5856 7.39866 6.58932
136 1 -22.144 6.58183 6.85598
137 1 -22.2437 5.69116 7.08103
138 1 -22.5899 6.01836 7.93124
139 1 -22.5582 6.97748 8.21868
140 1 -22.9827 7.87857 8.36789
141 1 -23.2373 7.75617 7.48495
142 1 -23.2858 8.65535 7.44894
143 1 -23.1812 8.30377 6.59927
144 1 -23.0767 8.83406 5.78494
145 1 -22.4775 9.43098 5.45966
146 1 -21.6375 9.0601 5.573
147 1 -21.921 9.15949 6.50545
148 1 -21.5769 9.69019 7.15035
149 1 -20.9688 8.94371 7.17734
150 1 -20.0561 9.35482 7.2969
151 1 -20.2013 9.03434 8.1835
152 1 -19.6838 8.82003 8.97227
153 1 -18.9502 9.25803 9.22338
154 1 -18.9746 9.15826 10.1137
155 1 -18.4501 8.83311 10.8204
156 1 -18.039 8.93256 11.709
157 1 -18.0601 9.79061 12.1757
158 1 -18.1185 10.4887 12.8274
159 1 -17.612 11.2194 12.636
160 1 -18.1253 11.0976 11.8378
161 1 -18.2226 11.6955 11.1024
162 1 -17.5073 12.2395 11.2851
163 1 -17.6048 12.7446 12.0206
164 1 -18.4128 13.1916 12.2888
165 1 -17.9972 13.2379 13.1581
166 1 -17.3267 13.8399 12.9667
167 1 -16.4104 13.7614 13.1268
168 1 -15.5155 13.5313 12.8436
169 1 -15.2864 14.4094 12.6035
170 1 -14.5624 14.7771 12.1984
171 1 -13.6347 14.9844 12.1986
172 1 -13.1817 14.4782 11.6252
173 1 -12.3762 14.0016 11.5198
174 1 -11.6862 13.3901 11.5921
175 1 -10.7212 13.2805 11.7828
176 1 -9.87648 13.2724 11.4407
177 1 -9.34281 14.0759 11.5522
178 1 -8.57705 14.6306 11.6687
179 1 -8.08732 14.6934 12.4786
180 1 -7.98791 14.1441 13.2302
181 1 -7.64981 13.3735 12.7825
182 1 -7.4587 12.6116 13.3314
183 1 -7.89425 12.2996 12.5578
184 1 -8.74194 12.5159 12.2776
185 1 -8.51189 12.254 11.4061
186 1 -8.16301 11.3695 11.3114
187 1 -8.60798 11.2736 12.1306
188 1 -9.03146 10.4316 12.1157
189 1 -8.57984 9.59571 11.9448
190 1 -8.05596 9.84284 12.7001
191 1 -7.62169 10.3671 12.0257
192 1 -7.64932 9.69814 11.3582
193 1 -7.89119 8.81458 11.0603
194 1 -8.63487 8.40306 10.6443
195 1 -9.32886 8.48589 9.95999
196 1 -8.68898 8.61195 9.28176
197 1 -7.81938 8.81459 8.91653
198 1 -6.92502 8.98597 9.2181
199 1 -6.86974 9.10089 10.1171
200 1 -6.0049 9.31859 10.4021
201 1 -5.15598 9.73642 10.7174
202 1 -5.75563 10.2953 10.2284
203 1 -5.32942 10.5876 9.42093
204 1 -5.30161 11.3207 10.0103
205 1 -4.66724 11.9841 10.2709
206 1 -4.1903 11.4595 10.9095
207 1 -3.316 11.4875 11.3032
208 1 -2.39591 11.3615 11.1719
209 1 -2.15694 11.7407 11.9787
210 1 -1.8115 12.6002 12.1046
211 1 -2.24605 13.284 12.5459
212 1 -1.40622 13.6767 12.7188
213 1 -0.617048 14.1514 12.4488
214 1 -0.334799 15.0033 12.2045
215 1 0.189787 15.1497 11.3804
216 1 0.199014 15.9508 10.9081
217 1 0.48308 16.723 10.4746
218 1 0.782716 17.6293 10.7562
219 1 0.682883 18.1416 11.5214
220 1 0.670088 18.9063 12.0375
221 1 1.06682 19.6911 12.329
222 1 1.22714 20.6296 12.3811
223 1 1.39302 20.9236 11.4924
224 1 1.26165 21.6685 12.047
225 1 1.14594 22.2711 12.7266
226 1 1.00643 23.1392 13.1045
227 1 0.183438 23.1384 13.5195
228 1 -0.487625 22.6043 13.8315
229 1 -0.721851 22.1092 13.0787
230 1 -1.37393 21.6326 12.584
231 1 -2.04666 21.2165 13.0394
232 1 -2.91224 21.5436 13.2039
233 1 -3.3086 22.3666 12.8951
234 1 -4.12767 21.9294 13.0944
235 1 -4.84015 22.0217 13.7292
236 1 -4.72313 21.0473 14.0357
237 1 -5.17708 20.6455 13.3202
238 1 -5.37119 20.2929 12.4694
239 1 -4.6537 20.5942 12.001
240 1 -3.79472 20.9852 11.6999
241 1 -3.4421 20.1788 11.3054
242 1 -2.81996 19.4723 11.171
243 1 -2.95523 18.4761 11.1448
244 1 -3.83347 18.3304 10.7651
245 1 -4.13547 19.0657 10.3359
246 1 -4.98858 19.3942 10.548
247 1 -5.55195 19.8301 9.98624
248 1 -5.70919 20.5202 9.28138
249 1 -6.59129 20.5386 9.02285
250 1 -7.12505 21.29 8.99234
251 1 -7.12129 22.2011 9.07939
252 1 -7.28425 22.7989 8.34952
253 1 -8.1479 22.449 8.39888
254 1 -8.83825 23.0311 8.09797
255 1 -9.76531 22.8822 7.96953
256 1 -10.7029 22.6341 8.08218
ITEM: TIMESTEP
2060000
ITEM: NUMBER OF ATOMS
256
ITEM: BOX BOUNDS mm mm mm
-1.2800000000000000e+02 1.2800000000000000e+02
-1.2800000000000000e+02 1.2800000000000000e+02
-1.2800000000000000e+02 1.2800000000000000e+02
ITEM: ATOMS id type x y z
1 1 -29.3551 6.92419 -8.5298
2 1 -28.5026 7.30807 -8.50798
3 1 -28.093 8.1023 -8.55876
4 1 -27.8467 8.93778 -8.14578
5 1 -28.078 9.77366 -7.90839
6 1 -27.3631 10.4088 -7.98493
7 1 -26.5235 9.8833 -8.18253
8 1 -26.2766 9.38602 -8.94875
9 1 -25.6963 8.71409 -8.80596
10 1 -25.3411 9.50088 -8.54758
11 1 -25.136 9.088 -7.73394
12 1 -25.6906 8.453 -7.34026
13 1 -25.4996 8.30943 -6.40899
14 1 -25.9031 7.46509 -6.13091
15 1 -25.8616 7.04282 -5.27985
16 1 -26.7435 7.1648 -4.99028
17 1 -27.4306 6.68932 -4.455
18 1 -27.1487 6.04166 -3.93691
19 1 -26.6852 5.30824 -4.22515
20 1 -27.4403 4.90484 -4.61684
21 1 -27.8005 4.31394 -4.02675
22 1 -27.4934 4.56196 -3.12092
23 1 -28.3817 4.78736 -3.09
24 1 -29.1882 5.04422 -3.57141
25 1 -29.4337 5.25106 -2.67997
26 1 -29.024 4.56442 -2.17643
27 1 -28.9532 5.30926 -1.59397
28 1 -28.8244 6.07383 -1.09551
29 1 -28.8093 6.83649 -0.465964
30 1 -28.896 7.74567 -0.605096
31 1 -29.1874 8.08555 -1.46636
32 1 -30.004 7.61873 -1.50793
33 1 -30.7504 8.07357 -1.09846
34 1 -31.4128 7.34574 -1.03098
35 1 -31.5944 7.9183 -0.290299
36 1 -32.0522 7.45708 0.359541
37 1 -31.8351 7.87858 1.21463
38 1 -31.761 8.04665 2.14703
39 1 -32.1728 7.69892 2.92415
40 1 -32.6827 8.54786 3.0319
41 1 -32.7175 9.29789 3.64373
42 1 -33.33 9.96497 3.85437
43 1 -32.7752 10.1878 4.5482
44 1 -32.6161 9.89472 5.44483
45 1 -31.9958 10.5369 5.33344
46 1 -31.4019 9.83628 5.4176
47 1 -30.7719 9.16861 5.23257
48 1 -30.4651 9.27974 6.11596
49 1 -30.4902 10.0424 6.63253
50 1 -31.1608 10.6214 6.91762
51 1 -30.9924 10.207 7.70867
52 1 -30.9706 11.0863 8.0652
53 1 -30.7825 10.4672 8.71296
54 1 -29.8604 10.5254 8.88242
55 1 -30.1677 11.2985 9.32495
56 1 -30.3684 12.2321 9.23752
57 1 -31.2785 12.0933 9.43914
58 1 -31.189 11.8137 10.3567
59 1 -30.9154 11.2381 11.0474
60 1 -30.8323 11.0233 11.9738
61 1 -31.2325 10.5814 12.6826
62 1 -31.7321 10.0606 13.3283
63 1 -31.1359 9.33099 13.3123
64 1 -31.9258 8.9057 13.6134
65 1 -31.7463 8.09961 14.0498
66 1 -31.7754 7.23736 13.8382
67 1 -32.5583 6.83513 14.114
68 1 -32.9383 6.63051 14.9678
69 1 -32.1441 6.53228 15.4429
70 1 -32.0983 5.7606 14.9212
71 1 -32.6193 4.99819 14.8228
72 1 -32.4037 5.0907 13.9315
73 1 -31.9872 5.79437 13.3487
74 1 -31.8908 5.0644 12.7369
75 1 -31.3868 4.93575 11.9673
76 1 -31.0784 4.16251 12.3234
77 1 -30.4041 3.68632 12.7436
78 1 -31.1456 3.18328 12.8994
79 1 -31.7468 2.48685 13.2307
80 1 -31.683 1.85383 13.8895
81 1 -32.1343 0.986341 13.9065
82 1 -31.9165 0.103771 13.9022
83 1 -31.015 0.0146644 14.0539
84 1 -30.3281 0.0898826 13.3001
85 1 -30.9523 0.585166 12.7817
86 1 -30.8074 1.37397 12.3439
87 1 -30.4205 2.15327 12.0402
88 1 -29.6676 2.40347 12.453
89 1 -28.8727 2.21553 12.928
90 1 -28.0303 2.64616 13.0048
91 1 -27.4949 3.26796 12.5623
92 1 -27.9247 4.0622 12.3244
93 1 -27.6359 4.32128 11.4793
94 1 -27.4004 3.61028 10.9895
95 1 -27.1386 4.34862 10.3894
96 1 -26.7711 3.89204 9.71212
97 1 -26.3136 3.73499 8.95684
98 1 -25.6414 3.22584 9.25144
99 1 -26.5218 2.87618 9.42211
100 1 -26.26 2.08904 8.99975
101 1 -26.0346 1.65453 8.24359
102 1 -25.4223 0.9238 8.18231
103 1 -24.5716 1.0944 8.51416
104 1 -24.4612 1.34492 7.64045
105 1 -23.9135 1.01948 6.95611
106 1 -23.0249 1.20955 7.24908
107 1 -23.0327 1.59892 6.38868
108 1 -24.0017 1.66783 6.21252
109 1 -24.1415 1.80399 5.27197
110 1 -24.1496 0.870733 5.14062
111 1 -24.9087 0.958045 4.57687
112 1 -24.846 0.530966 3.7542
113 1 -24.4508 -0.065046 3.10647
114 1 -23.9776 0.629158 2.6179
115 1 -24.2218 0.865402 1.68789
116 1 -25.0611 1.15566 1.48712
117 1 -25.2994 1.73079 0.762413
118 1 -24.6397 2.3833 0.945386
119 1 -24.2796 2.73829 1.7309
120 1 -24.1429 3.65724 1.57514
121 1 -23.8744 4.57266 1.73185
122 1 -23.8726 4.42807 2.64964
123 1 -23.9171 5.34645 2.87261
124 1 -23.1653 5.58887 3.45279
125 1 -23.8443 6.25198 3.67016
126 1 -24.6922 5.88833 3.78972
127 1 -24.5425 5.5166 4.62879
128 1 -23.6729 5.33592 4.8438
129 1 -22.8598 5.1078 4.44327
130 1 -22.1929 5.5091 3.95941
131 1 -21.5378 5.15885 3.47319
132 1 -20.6808 5.57371 3.65634
133 1 -19.6858 5.63284 3.50947
134 1 -19.3849 6.34964 2.95595
135 1 -19.29 6.12007 1.99393
136 1 -19.1802 6.58318 1.13985
137 1 -18.2674 6.63964 1.29394
138 1 -17.7367 7.23144 1.78746
139 1 -17.1792 7.32183 2.55416
140 1 -17.59 6.45618 2.83222
141 1 -17.0922 6.69646 3.60339
142 1 -16.3608 7.32217 3.62147
143 1 -16.1052 7.37652 4.57071
144 1 -15.4211 7.9728 4.44301
145 1 -15.3846 8.52119 3.76503
146 1 -15.3139 9.29274 4.32009
147 1 -15.384 9.23801 5.25232
148 1 -14.4945 9.57529 5.1573
149 1 -14.1362 10.3798 5.43744
150 1 -14.1807 11.2554 5.82967
151 1 -13.3118 11.1514 5.55758
152 1 -13.5686 11.7981 4.87618
153 1 -13.0827 12.3914 5.42009
154 1 -13.3091 12.7462 6.2546
155 1 -14.1344 12.7728 6.69746
156 1 -14.7608 12.3403 7.22047
157 1 -15.0427 13.2321 7.03869
158 1 -14.6396 13.031 7.99629
159 1 -15.0826 13.0536 8.8641
160 1 -14.3603 12.6315 9.31815
161 1 -14.1768 13.0945 10.0847
162 1 -13.6095 13.8658 10.1567
163 1 -13.3545 13.4673 10.9278
164 1 -12.6985 14.1384 11.166
165 1 -11.8152 14.5069 11.1363
166 1 -11.0615 14.1111 11.536
167 1 -11.3341 13.3386 11.069
168 1 -10.4535 13.0857 10.8263
169 1 -10.3268 12.185 10.6822
170 1 -9.4428 12.488 10.8634
171 1 -8.53654 12.4922 11.1489
172 1 -8.40145 13.5156 11.1122
173 1 -8.41227 13.7882 10.19
174 1 -7.97432 13.3424 9.4875
175 1 -7.10553 13.5342 9.3479
176 1 -6.51963 14.1463 9.73334
177 1 -6.55759 13.4897 10.3594
178 1 -5.85439 13.1087 10.88
179 1 -5.83445 12.163 10.9603
180 1 -5.99242 11.5073 11.6212
181 1 -5.56467 10.7956 12.0758
182 1 -5.65219 10.4578 12.9404
183 1 -5.32584 11.2827 13.1882
184 1 -4.71854 10.8312 13.8142
185 1 -4.3693 10.4415 13.0045
186 1 -3.6511 10.2814 12.4809
187 1 -3.30577 9.55647 11.9054
188 1 -3.93904 9.78273 11.2416
189 1 -3.97482 10.7036 11.5156
190 1 -4.12651 11.5118 11.0912
191 1 -4.54536 12.0369 11.7218
192 1 -4.75452 12.4496 10.9621
193 1 -4.49575 12.6413 10.0334
194 1 -4.07295 12.2794 9.2568
195 1 -3.93138 13.0577 8.73168
196 1 -3.11864 13.5327 8.75512
197 1 -3.33152 14.0041 7.92603
198 1 -3.07409 13.475 7.23102
199 1 -2.24094 13.8622 7.51861
200 1 -2.00475 14.2674 8.36906
201 1 -2.18132 13.7278 9.18978
202 1 -1.78173 14.1067 9.98008
203 1 -1.98793 14.422 10.8962
204 1 -1.23508 14.5877 11.3971
205 1 -1.15377 15.3597 11.8588
206 1 -0.899366 16.0429 11.2392
207 1 -1.64351 15.677 10.7073
208 1 -2.47261 15.3093 10.4041
209 1 -3.12915 14.6482 10.5567
210 1 -3.5277 15.4202 10.1983
211 1 -4.2315 15.8112 10.7474
212 1 -4.96818 16.3939 10.4263
213 1 -4.92893 17.1975 9.95875
214 1 -5.78507 17.5215 10.2033
215 1 -5.98401 17.9346 11.0368
216 1 -6.59288 18.4466 11.5494
217 1 -6.61296 18.5939 12.4437
218 1 -6.59713 17.7343 12.8013
219 1 -5.72096 17.5969 13.2818
220 1 -5.05856 17.1578 13.8434
221 1 -5.45765 17.2161 14.6608
222 1 -5.00151 17.8184 15.1986
223 1 -4.08463 17.7913 15.0913
224 1 -3.57491 18.4329 15.6301
225 1 -3.18077 17.6504 16.0046
226 1 -2.46689 18.3206 15.8796
227 1 -2.93082 18.9328 16.4659
228 1 -3.67021 19.5492 16.5987
229 1 -4.40451 19.146 16.2329
230 1 -4.97888 19.8827 16.6246
231 1 -5.51832 20.2999 17.2595
232 1 -6.21791 20.7447 16.8563
233 1 -6.39039 20.1054 16.1768
234 1 -6.30643 20.6177 15.4064
235 1 -6.50761 20.1161 14.6486
236 1 -6.17697 19.3234 14.9457
237 1 -5.79183 18.8884 14.166
238 1 -6.33569 18.4566 13.5688
239 1 -6.658 17.7422 14.0761
240 1 -7.47638 18.0287 13.6073
241 1 -7.99774 18.7641 13.2961
242 1 -8.80146 19.2832 13.2999
243 1 -9.52163 19.8804 13.4592
244 1 -10.246 20.3594 13.0839
245 1 -11.0927 20.372 12.7393
246 1 -11.8648 19.9766 13.0718
247 1 -11.7741 19.0894 13.3509
248 1 -12.1674 18.6822 14.1451
249 1 -12.8834 18.0902 14.3774
250 1 -12.3211 17.383 14.177
251 1 -12.0505 17.1527 15.0473
252 1 -12.0238 16.2175 15.2219
253 1 -11.4661 15.5274 14.9932
254 1 -11.1088 14.6556 14.7083
255 1 -11.6809 14.0979 14.1744
256 1 -11.8757 13.6974 14.9887
ITEM: TIMESTEP
2070000
ITEM: NUMBER OF ATOMS
256
ITEM: BOX BOUNDS mm mm mm
-1.2800000000000000e+02 1.2800000000000000e+02
-1.2800000000000000e+02 1.2800000000000000e+02
-1.2800000000000000e+02 1.2800000000000000e+02
ITEM: ATOMS id type x y z
1 1 -29.9877 10.863 -7.44599
2 1 -29.6653 10.1755 -6.96466
3 1 -29.7003 9.26486 -7.15215
4 1 -29.4231 8.7279 -6.42412
5 1 -29.7091 8.4291 -5.5436
6 1 -30.5193 7.86968 -5.83145
7 1 -31.3073 7.46946 -6.19951
8 1 -31.0276 7.15929 -7.01982
9 1 -31.4324 8.07046 -7.13709
10 1 -31.206 8.91373 -6.79776
11 1 -31.8645 8.80396 -6.14415
12 1 -32.3659 8.72397 -5.31131
13 1 -33.1904 8.49839 -4.95308
14 1 -33.0282 7.6353 -4.70891
15 1 -33.2675 7.80563 -3.79047
16 1 -32.9891 7.13115 -3.13381
17 1 -32.5944 6.27835 -3.38255
18 1 -33.2477 6.30711 -3.99365
19 1 -33.8224 6.76768 -4.59395
20 1 -33.3142 6.61112 -5.38102
21 1 -34.0498 6.87442 -5.88898
22 1 -34.8124 7.39752 -5.73631
23 1 -34.5931 8.08964 -5.11856
24 1 -35.0318 8.0757 -4.2641
25 1 -35.5154 7.65832 -3.56543
26 1 -35.4863 7.38918 -2.65098
27 1 -35.9576 7.88486 -2.01141
28 1 -36.1751 7.06728 -1.49802
29 1 -36.0196 6.26023 -1.94539
30 1 -36.2958 5.39452 -1.85365
31 1 -36.0805 5.30931 -0.960923
32 1 -36.4443 4.47982 -0.756206
33 1 -36.0594 4.78156 0.0191406
34 1 -35.6448 5.36728 0.674665
35 1 -34.7968 5.80693 0.614964
36 1 -35.0019 6.68727 0.863687
37 1 -34.3339 7.37409 0.837521
38 1 -34.2461 8.29448 1.13492
39 1 -33.5368 7.83058 1.5134
40 1 -33.4648 7.93069 2.44689
41 1 -33.2445 7.85079 3.32893
42 1 -32.5427 7.52002 2.8428
43 1 -31.536 7.60108 2.76863
44 1 -30.6965 7.73168 3.08625
45 1 -30.4164 8.627 2.83753
46 1 -29.7256 8.30995 3.45519
47 1 -29.7916 7.37539 3.39433
48 1 -30.183 6.77936 3.99758
49 1 -29.3809 6.24885 4.12277
50 1 -28.6618 5.71821 3.75394
51 1 -28.4105 6.56941 3.53569
52 1 -27.5304 6.71141 3.41058
53 1 -26.6229 6.43712 3.48697
54 1 -26.1558 5.68178 3.76628
55 1 -25.95 4.78919 3.99232
56 1 -26.4208 4.80115 4.77881
57 1 -26.9275 5.26629 5.40922
58 1 -26.9043 4.69681 6.16725
59 1 -26.1708 4.34315 6.58805
60 1 -25.8933 3.48673 6.41455
61 1 -25.6563 2.58799 6.48118
62 1 -25.8317 1.70594 6.31415
63 1 -26.586 1.65571 6.87868
64 1 -27.4056 1.22968 7.13217
65 1 -27.574 0.943945 8.01237
66 1 -28.3046 1.49887 8.22365
67 1 -28.9265 2.08082 7.85498
68 1 -28.7022 2.34891 8.73952
69 1 -28.8126 2.38225 9.70326
70 1 -28.4421 1.66673 10.0873
71 1 -27.5868 1.44882 10.2513
72 1 -28.1349 0.6705 10.3203
73 1 -27.4001 0.696292 10.9495
74 1 -27.9898 1.10868 11.5926
75 1 -28.6462 0.550373 11.2515
76 1 -29.3657 0.0580339 10.8739
77 1 -29.4893 -0.211954 11.7972
78 1 -29.2535 -0.408476 12.7114
79 1 -30.0177 -0.642691 13.1885
80 1 -29.4827 0.0455518 13.6594
81 1 -28.6877 0.512126 13.8133
82 1 -27.8994 1.08297 13.5578
83 1 -27.3435 1.41349 14.3513
84 1 -26.8258 2.1166 14.7551
85 1 -26.8695 3.03034 14.9835
86 1 -26.6361 3.6752 14.3009
87 1 -25.9193 3.12596 14.3628
88 1 -25.0847 2.81103 14.5804
89 1 -24.6029 2.79423 13.7803
90 1 -24.6147 1.74963 13.8784
91 1 -24.6186 0.841108 13.6644
92 1 -24.0331 1.07327 12.9515
93 1 -23.5303 1.84561 12.9558
94 1 -22.8771 1.65732 12.309
95 1 -22.2533 2.36456 12.2892
96 1 -22.3851 2.85545 11.4491
97 1 -22.6024 2.45724 10.5557
98 1 -22.3563 1.61434 10.875
99 1 -23.2977 1.615 10.9833
100 1 -24.1634 1.38209 11.3182
101 1 -24.526 0.593967 10.9835
102 1 -23.9168 0.0916993 10.4593
103 1 -23.424 0.899912 10.1147
104 1 -23.0288 1.02029 9.30386
105 1 -23.1423 1.90818 9.44644
106 1 -22.6079 2.64703 9.40888
107 1 -21.9366 2.60092 8.7335
108 1 -21.2161 2.26096 8.21936
109 1 -20.4277 2.58877 7.80464
110 1 -19.7129 2.52256 7.21555
111 1 -19.6913 1.75775 6.64297
112 1 -20.373 1.16204 6.36466
113 1 -20.919 1.27204 7.07721
114 1 -20.7535 2.12819 6.73479
115 1 -21.01 2.41682 5.86547
116 1 -20.5154 1.92484 5.20997
117 1 -19.918 2.65562 5.11052
118 1 -18.9605 2.69241 5.00962
119 1 -19.0318 2.45456 4.13484
120 1 -18.5691 2.34831 3.28641
121 1 -18.794 2.7226 2.39463
122 1 -19.5285 2.67077 1.85624
123 1 -19.0296 2.98508 1.06969
124 1 -19.3259 3.74928 0.618791
125 1 -18.6522 4.08837 0.0851209
126 1 -18.259 4.94612 0.021088
127 1 -18.8802 4.91094 0.710105
128 1 -18.3932 4.69653 1.47209
129 1 -18.6041 5.1002 2.32001
130 1 -19.1931 5.1726 3.05695
131 1 -18.979 5.33686 3.95668
132 1 -19.393 5.71241 4.72918
133 1 -19.2563 6.52156 5.08933
134 1 -18.6047 6.30856 5.69418
135 1 -18.111 6.69554 5.00294
136 1 -17.3125 6.86664 4.59895
137 1 -16.8439 7.37273 3.93545
138 1 -16.1998 7.90907 4.37854
139 1 -16.2327 8.81975 4.61667
140 1 -16.5785 9.73931 4.71792
141 1 -17.0845 10.3386 4.17666
142 1 -17.2561 11.0395 4.82762
143 1 -17.0616 11.9266 5.03413
144 1 -16.444 12.5056 5.47933
145 1 -15.6954 12.3011 6.02639
146 1 -14.7982 12.3301 5.94614
147 1 -14.0415 11.8733 6.19929
148 1 -13.7583 11.1677 5.69308
149 1 -13.1164 11.8427 5.62735
150 1 -12.576 11.6901 6.38933
151 1 -12.7158 10.7705 6.44623
152 1 -13.1707 10.5806 7.29101
153 1 -13.1102 11.5835 7.26238
154 1 -12.9858 12.4908 7.15149
155 1 -12.2094 12.6786 7.69058
156 1 -11.4211 12.2922 7.98333
157 1 -11.4101 11.4278 7.6613
158 1 -11.6807 10.5815 8.02996
159 1 -11.0297 10.0739 8.47742
160 1 -11.6164 9.42008 8.70194
161 1 -12.0306 8.86301 8.03624
162 1 -12.3747 8.0574 8.22212
163 1 -12.8417 7.95242 9.07941
164 1 -13.5414 7.40328 9.33344
165 1 -12.9314 7.36082 10.0558
166 1 -12.312 8.13136 10.1961
167 1 -12.7687 8.7741 10.8293
168 1 -12.5264 9.25733 11.5753
169 1 -11.912 9.11355 12.2923
170 1 -11.186 9.51248 11.867
171 1 -10.76 9.54867 12.7109
172 1 -10.7706 8.80554 13.2209
173 1 -10.177 8.57865 13.929
174 1 -9.2932 8.7541 13.6213
175 1 -9.22226 9.30895 14.4171
176 1 -8.42142 8.99844 14.7704
177 1 -7.55069 9.24659 14.8767
178 1 -7.62561 9.19578 15.8515
179 1 -8.22967 9.82409 16.2579
180 1 -8.97069 10.2942 16.6433
181 1 -8.41585 10.8278 16.1155
182 1 -8.59002 11.789 15.9622
183 1 -7.90086 11.7299 16.6086
184 1 -7.25202 11.9239 15.9246
185 1 -6.6608 11.6031 15.3162