ITEM: TIMESTEP
1590000
ITEM: NUMBER OF ATOMS
256
ITEM: BOX BOUNDS mm mm mm
-1.2800000000000000e+02 1.2800000000000000e+02
-1.2800000000000000e+02 1.2800000000000000e+02
-1.2800000000000000e+02 1.2800000000000000e+02
ITEM: ATOMS id type x y z
1 1 -19.0118 12.5837 7.40584
2 1 -19.5947 12.8109 8.13229
3 1 -20.0011 13.2354 8.80479
4 1 -20.4481 13.6835 9.51363
5 1 -20.357 14.06 10.382
6 1 -20.5876 14.1663 11.2937
7 1 -20.5872 14.034 12.2466
8 1 -20.3386 13.9031 13.1546
9 1 -20.1006 13.7026 14.0541
10 1 -19.527 14.0313 14.7026
11 1 -19.0312 14.4843 15.3593
12 1 -18.5002 14.8081 16.0793
13 1 -17.763 15.1562 16.4757
14 1 -16.9138 15.3274 16.8875
15 1 -16.018 15.3149 17.2698
16 1 -15.1395 15.4701 17.5834
17 1 -14.2585 15.2022 17.9083
18 1 -13.4564 15.3238 18.3833
19 1 -12.931 14.9935 19.053
20 1 -12.5853 14.3764 19.6953
21 1 -12.0378 13.8811 20.352
22 1 -11.1709 13.6331 20.6664
23 1 -10.3516 13.5085 21.0214
24 1 -9.95087 13.6771 21.8152
25 1 -9.62469 13.6629 22.7049
26 1 -9.05031 13.501 23.4898
27 1 -8.49389 12.9315 23.9943
28 1 -8.47888 12.027 24.2078
29 1 -8.39233 11.1761 24.4615
30 1 -8.20116 10.2727 24.7078
31 1 -7.8009 9.48549 24.2947
32 1 -7.49281 8.87208 23.625
33 1 -7.3213 8.29469 22.8875
34 1 -7.46097 7.99035 22.0505
35 1 -7.3918 7.4274 21.2432
36 1 -7.54947 6.93128 20.4643
37 1 -7.76677 6.60607 19.6044
38 1 -7.88322 6.56665 18.6833
39 1 -8.05532 6.73929 17.7319
40 1 -8.06702 6.99079 16.7865
41 1 -8.07508 7.50593 15.9561
42 1 -8.21594 8.21769 15.348
43 1 -8.68653 8.95044 14.8139
44 1 -9.00488 9.60343 14.2124
45 1 -8.84057 10.3046 13.5899
46 1 -8.72693 10.6214 12.744
47 1 -8.52912 10.7274 11.8292
48 1 -8.16799 11.1063 10.9617
49 1 -7.79455 11.6714 10.3236
50 1 -7.28631 12.2788 9.76995
51 1 -6.88091 12.5657 9.01731
52 1 -6.45061 13.2075 8.50142
53 1 -6.27709 13.97 8.0106
54 1 -6.29039 14.6558 7.34211
55 1 -5.92451 15.1323 6.69086
56 1 -5.55772 15.9506 6.47185
57 1 -5.32557 16.7764 6.14046
58 1 -4.84521 17.5697 6.02659
59 1 -4.31505 18.2391 5.75443
60 1 -3.93349 18.9832 5.3872
61 1 -3.3576 19.699 5.12582
62 1 -2.62947 20.3299 4.99463
63 1 -1.93623 20.9633 4.99471
64 1 -1.32128 21.571 4.68769
65 1 -0.974323 22.206 4.06089
66 1 -0.478411 22.8464 3.62169
67 1 0.131608 23.2832 3.09566
68 1 0.569331 23.5641 2.30467
69 1 0.815731 23.7544 1.42829
70 1 1.37598 23.9519 0.660724
71 1 2.04716 24.0684 0.0667991
72 1 2.57963 24.1818 -0.66132
73 1 2.91027 24.0503 -1.5344
74 1 2.99007 23.9251 -2.4403
75 1 2.83767 23.6823 -3.40505
76 1 2.5727 23.7231 -4.29224
77 1 2.45338 23.5328 -5.24473
78 1 2.64771 23.4957 -6.13396
79 1 2.79595 23.3722 -7.04931
80 1 2.79461 23.3482 -8.02651
81 1 2.67855 23.7085 -8.88777
82 1 2.39729 24.3266 -9.57872
83 1 2.14003 25.0784 -10.1228
84 1 1.89746 25.7601 -10.6842
85 1 1.26561 26.1591 -11.3398
86 1 0.562118 26.2008 -11.9762
87 1 -0.182925 26.0481 -12.5418
88 1 -0.982656 25.6985 -12.9961
89 1 -1.75354 25.1676 -13.3228
90 1 -2.52162 24.6289 -13.6695
91 1 -2.68355 23.6935 -13.7562
92 1 -2.44682 22.8059 -13.8343
93 1 -2.02517 21.9128 -13.7752
94 1 -1.80779 21.0004 -13.6766
95 1 -1.71616 20.1095 -13.3864
96 1 -1.94357 19.2771 -13.0515
97 1 -2.27428 18.3964 -12.8861
98 1 -2.5883 17.7006 -12.3287
99 1 -2.95067 17.2271 -11.6041
100 1 -3.36636 16.6574 -10.9525
101 1 -3.39886 16.2738 -10.0521
102 1 -3.44092 15.7059 -9.29691
103 1 -3.76389 15.2502 -8.53951
104 1 -3.9208 14.7843 -7.72412
105 1 -4.28388 14.3612 -6.94263
106 1 -4.72645 14.3197 -6.12387
107 1 -4.97811 14.4257 -5.23206
108 1 -4.66112 14.7127 -4.40799
109 1 -4.2989 14.8992 -3.58181
110 1 -3.75782 15.4261 -2.97177
111 1 -3.14888 15.9153 -2.46809
112 1 -2.47414 16.4503 -1.99918
113 1 -1.64784 16.8131 -1.9496
114 1 -0.766418 16.7039 -1.73899
115 1 0.187196 16.777 -1.60144
116 1 1.07717 17.0619 -1.55658
117 1 1.973 16.906 -1.79719
118 1 2.87423 16.8771 -1.95072
119 1 3.79646 16.6412 -2.14788
120 1 4.3184 16.6281 -2.92325
121 1 4.7796 16.2377 -3.61132
122 1 5.7565 15.9998 -3.88742
123 1 6.5328 15.6413 -4.34118
124 1 7.22947 15.614 -4.94725
125 1 7.79293 15.7121 -5.75783
126 1 8.31847 15.6186 -6.53757
127 1 8.83085 15.797 -7.32992
128 1 9.14465 16.1456 -8.21546
129 1 9.26419 16.1418 -9.16847
130 1 9.13894 15.9813 -10.0692
131 1 9.27162 15.4237 -10.8384
132 1 9.44845 14.8831 -11.5859
133 1 9.83479 14.535 -12.3801
134 1 10.3979 14.4297 -13.175
135 1 10.3411 14.5257 -14.0781
136 1 10.0661 14.9159 -14.8669
137 1 9.63372 15.3016 -15.6667
138 1 9.07164 15.67 -16.2845
139 1 8.87406 16.2929 -16.9383
140 1 8.89174 16.8892 -17.6614
141 1 8.5966 17.5286 -18.3414
142 1 8.48316 18.1291 -19.0594
143 1 8.17591 18.5798 -19.811
144 1 7.52024 18.9703 -20.4281
145 1 6.88754 19.267 -21.051
146 1 5.99218 19.3537 -21.3844
147 1 5.04975 19.4973 -21.6389
148 1 4.14705 19.3773 -21.6748
149 1 3.2332 19.3257 -21.8094
150 1 2.75903 19.4215 -22.6233
151 1 2.34479 19.7031 -23.4624
152 1 2.08617 20.0585 -24.2921
153 1 2.08349 20.5532 -25.1446
154 1 1.9985 20.6546 -26.0521
155 1 1.35131 20.7571 -26.7708
156 1 1.20228 20.5176 -27.6638
157 1 0.823982 19.9827 -28.3653
158 1 0.812527 19.131 -28.7715
159 1 0.673683 18.3004 -29.2251
160 1 0.553489 17.3452 -29.1768
161 1 0.0450151 16.5649 -29.1003
162 1 -0.142513 15.5964 -28.9338
163 1 -0.399565 14.7907 -28.5672
164 1 -0.894641 13.9548 -28.3281
165 1 -1.01832 13.0554 -28.0951
166 1 -1.62287 12.3363 -27.9875
167 1 -2.28203 11.7732 -27.6996
168 1 -3.07597 11.225 -27.522
169 1 -3.47891 10.5555 -26.9994
170 1 -3.93538 9.82752 -26.7607
171 1 -4.12956 8.89639 -26.6827
172 1 -4.24985 8.026 -26.3593
173 1 -4.34884 7.11816 -26.1652
174 1 -4.08211 6.21075 -25.8918
175 1 -4.00679 5.34141 -25.4787
176 1 -3.88698 4.46163 -25.1452
177 1 -3.42766 3.77301 -24.6993
178 1 -3.02971 2.9599 -24.5286
179 1 -2.95098 2.06011 -24.3062
180 1 -2.58559 1.22409 -24.4461
181 1 -1.90785 0.60702 -24.421
182 1 -1.21737 0.00410717 -24.3341
183 1 -0.616031 -0.762784 -24.3067
184 1 0.0163301 -1.41323 -24.0569
185 1 0.310775 -2.22664 -23.5548
186 1 0.628974 -2.92743 -23.0736
187 1 1.22914 -3.56092 -22.8612
188 1 1.69249 -4.30283 -22.5103
189 1 2.28008 -5.03686 -22.2562
190 1 2.96684 -5.7024 -22.2767
191 1 3.84109 -5.89974 -22.1373
192 1 4.64897 -6.17431 -21.7295
193 1 5.52282 -6.33907 -21.4762
194 1 6.31712 -6.44426 -21.0359
195 1 6.9378 -6.26864 -20.4162
196 1 7.41661 -6.1739 -19.5895
197 1 7.78236 -5.82403 -18.835
198 1 8.02546 -5.15144 -18.2108
199 1 7.8749 -4.23662 -17.9468
200 1 8.0936 -3.42316 -17.513
201 1 8.35717 -2.64311 -17.108
202 1 8.92466 -1.89488 -17.0425
203 1 9.61226 -1.31386 -16.8187
204 1 10.251 -0.673927 -16.5299
205 1 10.8666 -0.0135094 -16.2905
206 1 11.2904 0.40024 -15.5875
207 1 11.5432 1.02356 -14.9768
208 1 11.9636 1.4991 -14.2108
209 1 12.2933 1.7878 -13.3614
210 1 12.4962 2.10044 -12.5644
211 1 12.4894 2.24393 -11.6
212 1 12.5459 2.29034 -10.6358
213 1 12.9385 2.28624 -9.75785
214 1 13.5381 2.42135 -9.06102
215 1 14.0918 2.55745 -8.35682
216 1 14.6469 2.47893 -7.60003
217 1 15.4384 2.10093 -7.10646
218 1 16.2934 1.69755 -6.99986
219 1 16.9379 1.0741 -6.76234
220 1 17.487 0.294199 -6.79483
221 1 17.9581 -0.503242 -6.9365
222 1 18.5416 -1.27396 -6.96681
223 1 19.1705 -1.97628 -6.7625
224 1 19.4906 -2.84617 -6.47005
225 1 19.6409 -3.78977 -6.20155
226 1 19.9925 -4.63781 -6.16301
227 1 20.4906 -5.37601 -6.5393
228 1 20.7676 -6.04454 -7.1005
229 1 20.6118 -6.77002 -7.75725
230 1 20.739 -7.38193 -8.48279
231 1 20.4792 -7.79521 -9.28779
232 1 20.2453 -8.51586 -9.92305
233 1 20.2061 -9.10693 -10.6928
234 1 20.4077 -9.75662 -11.3424
235 1 20.6579 -10.3417 -11.9742
236 1 20.9357 -10.8636 -12.7055
237 1 21.2665 -11.5523 -13.2499
238 1 21.6749 -12.3661 -13.3795
239 1 21.7621 -13.3113 -13.6314
240 1 21.8878 -14.1075 -14.074
241 1 22.293 -14.9648 -14.2262
242 1 22.7758 -15.7415 -14.116
243 1 23.1605 -16.59 -14.0844
244 1 23.6558 -17.3582 -14.1953
245 1 24.4252 -17.8329 -14.4985
246 1 25.2308 -18.3159 -14.5236
247 1 26.148 -18.4628 -14.4577
248 1 27.0643 -18.2568 -14.2133
249 1 27.8675 -18.1772 -13.7748
250 1 28.5928 -18.4806 -13.2523
251 1 29.3939 -18.9971 -13.1364
252 1 30.2522 -19.4224 -13.0289
253 1 30.9313 -20.0137 -12.7745
254 1 31.4837 -20.6531 -12.2193
255 1 31.912 -21.3664 -11.8317
256 1 32.2548 -22.1805 -11.6109
ITEM: TIMESTEP
1600000
ITEM: NUMBER OF ATOMS
256
ITEM: BOX BOUNDS mm mm mm
-1.2800000000000000e+02 1.2800000000000000e+02
-1.2800000000000000e+02 1.2800000000000000e+02
-1.2800000000000000e+02 1.2800000000000000e+02
ITEM: ATOMS id type x y z
1 1 -24.2594 22.4299 8.63201
2 1 -23.5648 22.0376 9.10227
3 1 -22.931 21.5105 9.56741
4 1 -22.5998 20.7524 10.0593
5 1 -22.1978 19.8952 10.3154
6 1 -21.891 19.056 10.5474
7 1 -21.4817 18.3093 10.9445
8 1 -20.9407 17.9549 11.584
9 1 -20.3712 17.4305 12.0785
10 1 -20.096 16.828 12.8154
11 1 -19.8611 16.2523 13.5116
12 1 -19.6247 15.4853 13.9755
13 1 -19.4361 14.7896 14.5705
14 1 -19.28 14.5075 15.4622
15 1 -18.7865 14.3441 16.2677
16 1 -18.2065 14.1757 16.9716
17 1 -17.3227 14.0606 17.3327
18 1 -16.4955 13.762 17.6752
19 1 -15.7374 13.7591 18.2144
20 1 -14.9716 13.5077 18.7459
21 1 -14.1744 13.1403 19.1237
22 1 -13.4798 12.8966 19.7499
23 1 -12.739 12.4204 20.1812
24 1 -11.8868 12.101 20.5414
25 1 -11.0445 11.6454 20.8395
26 1 -10.2439 11.1632 20.7947
27 1 -9.36335 10.786 20.9918
28 1 -8.55306 10.254 21.0752
29 1 -7.80452 9.6744 21.083
30 1 -6.88927 9.41953 20.981
31 1 -6.13137 8.87895 20.7106
32 1 -5.374 8.33913 20.4704
33 1 -4.80159 7.61744 20.3766
34 1 -4.1022 7.01529 20.5517
35 1 -3.66211 6.23083 20.2213
36 1 -3.32598 5.49377 19.7746
37 1 -3.63915 4.58546 19.4956
38 1 -4.12745 4.03426 18.8623
39 1 -4.75363 3.9483 18.1878
40 1 -5.31739 4.31829 17.5951
41 1 -5.53939 4.99794 16.9424
42 1 -5.45327 5.62304 16.243
43 1 -5.402 6.23249 15.4959
44 1 -5.43586 6.93129 14.9072
45 1 -5.44991 7.75165 14.4485
46 1 -5.48097 8.60986 14.0296
47 1 -5.22368 9.36132 13.5706
48 1 -5.30656 10.3069 13.5877
49 1 -5.53367 11.1852 13.3857
50 1 -5.80723 12.1169 13.043
51 1 -5.83204 12.8666 12.5268
52 1 -5.56244 13.5886 11.9768
53 1 -5.26611 14.232 11.233
54 1 -4.98258 14.9588 10.6845
55 1 -4.43885 15.562 10.207
56 1 -3.67333 15.8886 9.76947
57 1 -3.04747 16.195 9.10626
58 1 -2.38308 16.4769 8.41886
59 1 -1.59078 16.8791 8.16454
60 1 -1.04858 17.5421 7.76755
61 1 -0.61758 18.0415 7.0808
62 1 -0.110683 18.7029 6.49982
63 1 0.31189 19.361 6.06411
64 1 0.961492 19.8336 5.52964
65 1 1.23816 20.177 4.6584
66 1 1.05143 20.307 3.74277
67 1 0.607275 20.6059 3.01695
68 1 0.189031 21.1504 2.44601
69 1 0.089822 21.6804 1.67906
70 1 0.246099 22.3314 0.973797
71 1 0.0061822 23.0568 0.398495
72 1 -0.252145 23.6083 -0.317702
73 1 -0.8834 24.0391 -0.868815
74 1 -1.38666 24.6487 -1.43659
75 1 -1.97401 25.158 -1.9848
76 1 -2.52779 25.7191 -2.5089
77 1 -3.17168 26.3005 -2.92185
78 1 -3.7961 26.7923 -3.44286
79 1 -4.52333 26.7808 -4.11192
80 1 -5.11604 26.6853 -4.86591
81 1 -5.52639 27.2248 -5.47968
82 1 -6.00308 27.4545 -6.23621
83 1 -6.2571 27.1483 -7.16098
84 1 -5.98443 26.76 -7.97273
85 1 -5.95232 26.066 -8.63957
86 1 -5.68641 25.3107 -9.14158
87 1 -5.13134 24.657 -9.4818
88 1 -4.42791 24.1732 -9.91081
89 1 -3.63219 23.6124 -9.9445
90 1 -3.20337 22.838 -10.2536
91 1 -3.21198 21.8908 -10.2303
92 1 -3.13655 21.0128 -9.99153
93 1 -3.04126 20.2754 -9.45058
94 1 -3.02042 19.4336 -9.02341
95 1 -3.30703 18.7075 -8.57607
96 1 -2.9876 17.9161 -8.11068
97 1 -3.09862 17.1008 -7.59502
98 1 -3.32859 16.2146 -7.46313
99 1 -3.20861 15.3238 -7.29277
100 1 -3.38863 14.4092 -7.08941
101 1 -3.88459 13.7013 -6.7396
102 1 -4.34297 13.1686 -6.10899
103 1 -4.4663 12.4579 -5.44858
104 1 -4.64296 11.9354 -4.73661
105 1 -4.42746 11.3783 -3.9934
106 1 -4.17767 11.1266 -3.1353
107 1 -3.78424 11.3053 -2.31563
108 1 -3.52944 11.4603 -1.38416
109 1 -3.20847 11.467 -0.472818
110 1 -2.44999 11.4772 0.0614765
111 1 -1.54528 11.5436 0.288905
112 1 -0.575374 11.5708 0.379328
113 1 0.302636 11.5738 0.0826281
114 1 1.09497 11.5102 -0.400198
115 1 1.65282 11.7035 -1.16844
116 1 2.30242 12.0852 -1.72273
117 1 2.93917 12.328 -2.39346
118 1 3.64623 12.6681 -2.96432
119 1 4.3534 12.521 -3.59061
120 1 4.83587 12.4243 -4.35534
121 1 5.62394 12.7037 -4.76112
122 1 6.19362 13.1781 -5.33019
123 1 6.59349 13.8394 -5.95956
124 1 6.67248 14.4574 -6.68471
125 1 6.5896 15.2683 -7.24907
126 1 6.69962 16.1516 -7.55967
127 1 6.77295 17.0948 -7.81559
128 1 6.47655 17.9538 -7.96617
129 1 6.55399 18.8342 -8.2809
130 1 6.86693 19.4951 -8.80802
131 1 7.35656 20.0967 -9.37058
132 1 7.57241 19.785 -10.3077
133 1 7.68617 19.6209 -11.258
134 1 7.85231 19.8255 -12.1748
135 1 8.04321 19.9214 -13.0736
136 1 8.09904 19.7731 -14.0004
137 1 7.83694 19.4993 -14.8487
138 1 7.74557 19.0666 -15.706
139 1 7.79506 18.9987 -16.6521
140 1 7.5523 18.7614 -17.6454
141 1 7.3014 18.5363 -18.5419
142 1 7.17042 18.495 -19.5181
143 1 6.98455 18.746 -20.4531
144 1 6.72909 18.8016 -21.3324
145 1 6.10836 18.6443 -21.9904
146 1 5.39302 18.4871 -22.6225
147 1 4.74426 18.4724 -23.3053
148 1 4.22727 18.456 -24.0802
149 1 3.52767 18.278 -24.7204
150 1 2.82633 18.0387 -25.2616
151 1 1.95365 17.8837 -25.5912
152 1 1.02119 17.7031 -25.7571
153 1 0.107109 17.4729 -25.7278
154 1 -0.786562 17.2056 -25.6617
155 1 -1.62215 16.696 -25.6232
156 1 -2.41936 16.2456 -25.7002
157 1 -3.17419 15.6659 -25.6666
158 1 -3.90474 15.1405 -25.2736
159 1 -4.44751 14.6998 -24.5676
160 1 -5.01907 14.2806 -23.9971
161 1 -5.42963 13.6077 -23.4317
162 1 -6.03446 12.901 -23.3613
163 1 -6.35697 12.0548 -23.5066
164 1 -6.71443 11.1988 -23.6202
165 1 -7.01823 10.3642 -23.7107
166 1 -7.0703 9.39702 -23.6852
167 1 -7.02203 8.51641 -23.3864
168 1 -7.17103 7.70115 -22.9474
169 1 -7.15345 6.92296 -22.5192
170 1 -7.09739 6.02621 -22.1677
171 1 -6.99649 5.1537 -21.9282
172 1 -6.74401 4.21163 -21.7125
173 1 -6.71101 3.31677 -21.5052
174 1 -6.56427 2.4647 -21.1204
175 1 -6.52779 1.62641 -20.7762
176 1 -6.48974 0.801407 -20.295
177 1 -6.30264 -0.0923057 -20.3209
178 1 -5.91815 -0.941509 -20.1721
179 1 -5.30119 -1.61696 -19.9718
180 1 -4.65386 -2.17548 -19.6039
181 1 -3.7982 -2.56198 -19.3582
182 1 -3.01195 -3.16101 -19.2515
183 1 -2.28795 -3.69876 -18.9552
184 1 -1.63381 -4.13181 -18.352
185 1 -0.840672 -4.03291 -17.9219
186 1 -0.141878 -3.7637 -17.3515
187 1 0.663934 -3.33947 -16.9676
188 1 1.57669 -3.11584 -16.8579
189 1 2.4171 -2.78768 -16.6441
190 1 3.34674 -2.71483 -16.6596
191 1 4.14337 -2.30611 -16.6813
192 1 4.79609 -1.82659 -17.0951
193 1 5.30886 -1.70856 -17.8957
194 1 5.68998 -1.61399 -18.7667
195 1 6.09538 -1.53712 -19.6698
196 1 6.66779 -1.55028 -20.462
197 1 7.47217 -1.71567 -20.8278
198 1 8.18492 -2.17676 -21.1374
199 1 9.00459 -2.60973 -21.2667
200 1 9.72026 -2.98206 -21.6516
201 1 10.5781 -3.40962 -21.8432
202 1 11.15 -3.96834 -21.4497
203 1 11.9467 -4.25481 -20.9904
204 1 12.6238 -4.32426 -20.3679
205 1 13.3348 -4.44684 -19.6846
206 1 13.9103 -4.60898 -18.9715
207 1 14.2397 -4.84219 -18.0779
208 1 14.5885 -4.68463 -17.2317
209 1 15.1885 -4.2344 -16.5393
210 1 15.7201 -3.71438 -15.9457
211 1 16.0883 -3.16458 -15.2494
212 1 16.3766 -3.01983 -14.3282
213 1 16.8617 -2.96877 -13.6067
214 1 17.1384 -2.75548 -12.7092
215 1 17.0045 -2.15812 -11.9254
216 1 16.9335 -1.59898 -11.1638
217 1 16.8503 -0.981851 -10.4621
218 1 16.9508 -0.296554 -9.84797
219 1 17.1574 0.331146 -9.16546
220 1 17.6361 0.805135 -8.55197
221 1 18.3325 0.780779 -7.92743
222 1 19.0639 0.619277 -7.42708
223 1 19.8241 0.0444187 -7.15618
224 1 20.6084 -0.487591 -6.97621
225 1 21.3049 -1.12314 -6.91538
226 1 21.8912 -1.80119 -7.12903
227 1 22.4494 -2.49427 -7.3481
228 1 22.9137 -3.18296 -7.81318
229 1 23.3326 -3.90891 -8.16807
230 1 23.5992 -4.74761 -8.52892
231 1 23.8458 -5.34421 -9.20704
232 1 24.2336 -5.87116 -9.93955
233 1 24.7006 -6.41162 -10.5767
234 1 25.0451 -6.77134 -11.3383
235 1 25.3567 -6.98654 -12.1913
236 1 25.847 -7.46628 -12.8228
237 1 26.0972 -7.92037 -13.5786
238 1 26.3812 -8.64374 -14.0937
239 1 26.8025 -9.12758 -14.8227
240 1 27.2162 -9.93175 -15.053
241 1 27.4737 -10.7817 -14.7054
242 1 27.6227 -11.5601 -14.2654
243 1 28.0291 -12.3442 -13.8724
244 1 28.6493 -12.7286 -13.2668
245 1 29.0865 -13.2278 -12.629
246 1 29.3977 -13.9744 -12.1356
247 1 29.7232 -14.5725 -11.5003
248 1 30.1809 -15.235 -10.9953
249 1 30.8443 -15.7867 -10.5856
250 1 31.2554 -16.6033 -10.2863
251 1 31.758 -17.3322 -10.168
252 1 32.3521 -17.986 -9.87439
253 1 33.1841 -18.08 -9.48774
254 1 33.7769 -18.6206 -8.99491
255 1 34.112 -19.0618 -8.27091
256 1 34.8943 -19.4055 -7.84957
ITEM: TIMESTEP
1610000
ITEM: NUMBER OF ATOMS
256
ITEM: BOX BOUNDS mm mm mm
-1.2800000000000000e+02 1.2800000000000000e+02
-1.2800000000000000e+02 1.2800000000000000e+02
-1.2800000000000000e+02 1.2800000000000000e+02
ITEM: ATOMS id type x y z
1 1 -23.8468 16.7014 11.856
2 1 -23.2856 16.0407 11.4766
3 1 -22.4126 15.7074 11.5786
4 1 -21.7725 15.4286 12.2155
5 1 -21.3483 15.0369 12.9817
6 1 -21.043 14.6777 13.7663
7 1 -20.5479 14.4976 14.5168
8 1 -20.025 14.2521 15.3225
9 1 -19.9555 14.1834 16.2731
10 1 -19.6483 13.9121 17.1007
11 1 -19.3228 13.923 17.954
12 1 -19.1783 13.3906 18.7082
13 1 -19.3782 12.6662 19.2774
14 1 -19.4364 11.9543 19.8457
15 1 -19.4813 11.0808 20.1927
16 1 -19.1802 10.5229 20.9189
17 1 -18.7488 10.0963 21.6003
18 1 -18.2146 9.5951 22.2506
19 1 -17.6696 8.95326 22.6689
20 1 -17.1229 8.19886 22.6562
21 1 -16.2692 7.87213 22.7523
22 1 -15.3861 7.55986 22.8311
23 1 -14.4574 7.52073 22.8319
24 1 -13.5431 7.32716 22.8515
25 1 -12.672 7.08008 22.5692
26 1 -11.7481 7.15149 22.3628
27 1 -10.8183 7.01988 22.1259
28 1 -9.91966 6.93799 22.0801
29 1 -9.04059 6.97694 21.9372
30 1 -8.16673 6.69457 21.9782
31 1 -7.31756 6.43537 21.8169
32 1 -6.51074 6.28473 21.3994
33 1 -5.9687 5.94486 20.6949
34 1 -5.24109 5.72442 19.9931
35 1 -4.59691 5.29197 19.386
36 1 -4.05527 5.30571 18.6123
37 1 -3.64088 5.0809 17.7121
38 1 -3.60778 4.94344 16.8203
39 1 -3.76043 4.35458 16.1313
40 1 -3.95641 3.87687 15.3283
41 1 -3.91392 3.75599 14.421
42 1 -3.96819 4.01597 13.5468
43 1 -3.79265 4.12992 12.661
44 1 -3.98934 4.32313 11.7446
45 1 -4.41722 4.56525 10.9916
46 1 -4.81204 5.14637 10.4284
47 1 -5.17849 5.71876 9.77774
48 1 -5.4345 6.4456 9.21752
49 1 -5.19828 7.30754 8.82242
50 1 -5.1197 8.07346 8.36336
51 1 -4.90906 8.93127 7.98641
52 1 -5.12608 9.76975 7.51654
53 1 -5.36469 10.5034 6.96192
54 1 -5.43847 11.395 6.64734
55 1 -5.77827 12.2902 6.47573
56 1 -5.9592 13.1814 6.46501
57 1 -6.35323 14.0083 6.54358
58 1 -6.41751 14.9028 6.34071
59 1 -6.87114 15.6593 6.04326
60 1 -7.33272 16.4183 5.90132
61 1 -7.49899 17.2552 5.50023
62 1 -7.67144 18.194 5.34251
63 1 -7.94808 19.0962 5.128
64 1 -8.21886 19.8713 4.72107
65 1 -8.43603 20.6109 4.13332
66 1 -8.80273 21.028 3.36068
67 1 -9.24753 21.4042 2.61674
68 1 -9.61517 21.6975 1.77723
69 1 -9.95328 21.7257 0.90709
70 1 -9.89155 22.088 0.0379127
71 1 -9.93587 22.4739 -0.8438
72 1 -9.94548 23.1394 -1.57918
73 1 -9.8947 23.8422 -2.18787
74 1 -9.64748 24.3009 -2.96945
75 1 -9.7165 24.807 -3.79286
76 1 -9.6125 25.093 -4.65514
77 1 -9.25991 25.4757 -5.42178
78 1 -8.91819 25.1966 -6.28433
79 1 -8.63327 24.8931 -7.15709
80 1 -8.15645 24.5269 -7.82509
81 1 -7.50789 24.3041 -8.49408
82 1 -6.75157 23.8697 -8.84005
83 1 -5.99922 23.6852 -9.38116
84 1 -5.37213 23.1991 -9.8914
85 1 -4.74622 22.4736 -10.2537
86 1 -4.05213 21.7679 -10.1643
87 1 -3.39157 21.1715 -10.0645
88 1 -3.02437 20.3238 -9.89009
89 1 -3.00157 19.3606 -9.68836
90 1 -2.91983 18.5121 -9.2255
91 1 -3.00867 17.7434 -8.63244
92 1 -3.12798 17.0623 -8.00177
93 1 -3.27357 16.2634 -7.57976
94 1 -3.35495 15.3985 -7.17321
95 1 -3.41479 14.6929 -6.61181
96 1 -3.63779 14.0419 -5.97988
97 1 -3.78627 13.5088 -5.18862
98 1 -4.07627 13.3355 -4.28222
99 1 -4.28973 13.0671 -3.43388
100 1 -4.28445 12.3953 -2.70471
101 1 -4.20711 11.5748 -2.21269
102 1 -4.15305 10.7742 -1.72379
103 1 -3.51793 10.3104 -1.28307
104 1 -2.76281 9.93133 -0.926186
105 1 -1.96149 9.60558 -0.556941
106 1 -1.06845 9.54422 -0.251243
107 1 -0.183308 9.51282 0.0034242
108 1 0.752816 9.51456 0.186304
109 1 1.65487 9.63837 0.366818
110 1 2.63637 9.72932 0.303389
111 1 3.45827 9.99418 -0.0677041
112 1 3.9562 9.97226 -0.835555
113 1 4.10692 10.4035 -1.68159
114 1 4.30792 10.7446 -2.5269
115 1 4.35973 11.2899 -3.31818
116 1 4.55329 11.8114 -4.08828
117 1 4.821 12.3738 -4.77991
118 1 5.20171 12.5954 -5.61714
119 1 5.78247 13.0562 -6.21434
120 1 6.45516 13.6926 -6.44521
121 1 6.90461 14.3924 -6.87006
122 1 7.46393 15.0825 -7.01736
123 1 7.94189 15.6518 -7.60581
124 1 8.52765 15.919 -8.25587
125 1 8.95787 16.0149 -9.06751
126 1 9.47252 16.2335 -9.82788
127 1 9.78423 16.1711 -10.7085
128 1 9.57465 15.8974 -11.5609
129 1 9.15022 15.5336 -12.358
130 1 8.52584 15.5009 -13.0926
131 1 7.94089 15.6713 -13.8223
132 1 7.52484 16.2247 -14.4177
133 1 7.28441 16.6853 -15.1974
134 1 6.62331 16.8142 -15.9106
135 1 6.42482 16.5406 -16.8062
136 1 6.70503 16.4103 -17.7743
137 1 7.23291 16.7323 -18.4567
138 1 7.61118 16.84 -19.2642
139 1 7.90094 16.9196 -20.1644
140 1 7.98209 17.3291 -20.9766
141 1 7.56503 17.6356 -21.8053
142 1 7.4005 17.6762 -22.7091
143 1 6.82969 17.4983 -23.4704
144 1 6.39174 17.2292 -24.2261
145 1 6.12749 17.416 -25.1008
146 1 5.5589 17.435 -25.8841
147 1 4.6264 17.177 -25.825
148 1 3.69909 17.1515 -25.7785
149 1 2.889 17.7146 -25.7153
150 1 1.9278 17.686 -25.8246
151 1 1.0073 17.895 -25.7422
152 1 0.0425513 17.8473 -25.5402
153 1 -0.886329 17.6127 -25.6727
154 1 -1.5964 17.0459 -25.7635
155 1 -2.1805 16.3898 -25.7591
156 1 -2.9896 15.944 -25.988
157 1 -3.62841 15.344 -26.3846
158 1 -4.06503 14.4997 -26.6758
159 1 -4.54837 13.7517 -27.013
160 1 -5.05925 13.0441 -27.377
161 1 -5.88371 12.6067 -27.5729
162 1 -6.54983 11.957 -27.4232
163 1 -7.14538 11.2899 -27.111
164 1 -7.68541 10.5267 -26.8553
165 1 -7.45366 9.58662 -26.8784
166 1 -7.42386 8.69725 -27.1095
167 1 -7.53249 7.74102 -26.9467
168 1 -7.69331 6.87931 -26.6921
169 1 -7.23613 6.19526 -26.3283
170 1 -7.04194 5.2604 -26.23
171 1 -6.69282 4.49288 -25.8316
172 1 -6.52388 3.87687 -25.1689
173 1 -5.90062 3.3514 -24.5603
174 1 -5.20591 2.96655 -24.1152
175 1 -4.73461 2.43149 -23.5129
176 1 -4.19018 2.21275 -22.7916
177 1 -3.58676 1.85521 -22.1109
178 1 -2.83333 1.57949 -21.6287
179 1 -2.42535 1.14536 -20.858
180 1 -1.59522 0.774792 -20.6824
181 1 -0.919134 0.211891 -20.4418
182 1 -0.0770288 -0.220625 -20.2949
183 1 0.750118 -0.536326 -20.6098
184 1 1.48027 -0.972044 -21.0231
185 1 1.92074 -1.65267 -21.519
186 1 2.43096 -2.4196 -21.7558
187 1 2.89684 -3.23823 -21.7232
188 1 3.49758 -3.9401 -21.6054
189 1 4.04867 -4.64762 -21.3315
190 1 4.81517 -5.18657 -21.3288
191 1 5.56819 -5.74669 -21.4218
192 1 6.40828 -6.15207 -21.4628
193 1 7.32869 -6.08283 -21.2044
194 1 7.97497 -6.39427 -20.6794
195 1 8.61994 -6.947 -20.3394
196 1 9.16492 -7.63532 -19.9732
197 1 9.58838 -8.29405 -19.5147
198 1 9.94427 -8.56954 -18.6624
199 1 10.6265 -8.6207 -18.0353
200 1 11.2647 -8.22155 -17.2916
201 1 12.0082 -8.34259 -16.6756
202 1 12.7368 -7.9487 -16.2332
203 1 13.4224 -7.40914 -15.9354
204 1 14.1685 -6.85748 -15.5974
205 1 14.9447 -6.49299 -15.2944
206 1 15.5199 -5.81331 -14.9789
207 1 15.7298 -4.98209 -14.5484
208 1 15.6672 -4.06748 -14.3579
209 1 15.8848 -3.22153 -13.9895
210 1 16.4434 -2.70826 -13.4264
211 1 16.8931 -2.1458 -12.7677
212 1 17.2842 -1.51345 -12.244
213 1 17.6614 -1.21322 -11.4426
214 1 17.7736 -0.705292 -10.644
215 1 17.7875 -0.384598 -9.73463
216 1 17.9283 -0.0348071 -8.87973
217 1 18.4052 -0.150452 -8.06242
218 1 18.8884 0.152589 -7.29958
219 1 19.5917 0.471375 -6.84793
220 1 20.2334 0.550049 -6.06504
221 1 20.8119 0.569114 -5.28859
222 1 21.614 0.50519 -4.81047
223 1 22.4472 0.544514 -4.32644
224 1 23.3551 0.19641 -4.32244
225 1 24.0869 -0.0411618 -4.8576
226 1 24.9063 -0.289757 -5.31145
227 1 25.5773 -0.670699 -5.88432
228 1 25.9079 -1.36935 -6.40721
229 1 25.9738 -2.33611 -6.36614
230 1 26.081 -3.31865 -6.32041
231 1 25.8958 -4.22033 -6.34744
232 1 25.6717 -5.05876 -6.64405
233 1 25.6911 -5.95383 -6.89161
234 1 25.375 -6.71607 -7.42387
235 1 25.165 -7.1311 -8.21723
236 1 25.127 -7.71995 -8.90988
237 1 25.3166 -8.49433 -9.45649
238 1 25.6122 -9.23783 -10.0117
239 1 26.0891 -9.86989 -10.4604
240 1 26.6638 -10.3776 -10.9978
241 1 27.0886 -11.0236 -11.535
242 1 27.5194 -11.2097 -12.335
243 1 28.1974 -11.488 -12.9086
244 1 28.2959 -11.9441 -13.7258
245 1 28.5517 -12.5674 -14.3945
246 1 28.8549 -13.1333 -15.1095
247 1 29.1847 -13.9648 -15.149
248 1 29.6305 -14.6728 -14.7044
249 1 30.3383 -15.0212 -14.2423
250 1 30.9923 -15.5489 -13.7987
251 1 31.5287 -16.3565 -13.8795
252 1 32.263 -16.8928 -13.9575
253 1 32.8516 -17.6272 -13.9158
254 1 33.4911 -17.998 -13.3708
255 1 34.0949 -18.3751 -12.6908
256 1 34.9944 -18.2273 -12.4403
ITEM: TIMESTEP
1620000
ITEM: NUMBER OF ATOMS
256
ITEM: BOX BOUNDS mm mm mm
-1.2800000000000000e+02 1.2800000000000000e+02
-1.2800000000000000e+02 1.2800000000000000e+02
-1.2800000000000000e+02 1.2800000000000000e+02
ITEM: ATOMS id type x y z
1 1 -21.6215 8.05616 9.28435
2 1 -21.6679 8.02366 10.2511
3 1 -21.5349 8.2626 11.1359
4 1 -21.1946 8.48624 11.959
5 1 -21.2133 8.41732 12.9177
6 1 -21.4728 7.89391 13.6961
7 1 -21.5818 7.69684 14.5932
8 1 -21.8161 7.26002 15.3778
9 1 -21.8569 6.79815 16.2414
10 1 -21.6785 6.88353 17.1564
11 1 -21.171 7.34619 17.7772
12 1 -20.6159 7.61987 18.5165
13 1 -20.2411 7.99694 19.3356
14 1 -20.2486 8.13637 20.2707
15 1 -20.0297 7.84895 21.1165
16 1 -19.6799 7.56513 21.9764
17 1 -19.0672 7.03856 22.4773
18 1 -18.4391 6.65359 23.0445
19 1 -17.7282 6.24973 23.5056
20 1 -16.7976 5.97638 23.5958
21 1 -15.9282 5.59918 23.5017
22 1 -15.0878 5.24752 23.2531
23 1 -14.1927 5.01695 23.0159
24 1 -13.379 4.71315 22.6908
25 1 -12.4161 4.52921 22.4603
26 1 -11.5118 4.55143 22.311
27 1 -10.782 4.11989 21.961
28 1 -9.89414 3.83458 21.8557
29 1 -9.21229 3.27612 21.6408
30 1 -8.41313 2.89145 21.2934
31 1 -7.70503 2.59398 20.7266
32 1 -7.10812 2.13094 20.1909
33 1 -6.44416 1.84193 19.5957
34 1 -6.33339 1.44325 18.763
35 1 -6.47864 0.992732 17.9674
36 1 -6.37897 0.702589 17.1041
37 1 -6.4032 0.310953 16.2268
38 1 -6.72794 0.420679 15.3474
39 1 -6.78743 0.803082 14.5406
40 1 -6.51763 1.36633 13.8839
41 1 -6.20959 1.98824 13.3013
42 1 -6.16034 2.72572 12.6695
43 1 -6.00471 3.4673 12.1053
44 1 -5.99545 4.25985 11.4954
45 1 -6.04115 5.07192 11.0193
46 1 -6.07551 5.93631 10.7446
47 1 -6.27091 6.7432 10.3634
48 1 -6.27857 7.658 10.2473
49 1 -6.50151 8.58881 10.2236
50 1 -6.77436 9.48477 10.0358
51 1 -7.16551 10.3051 9.8278
52 1 -7.49909 11.0331 9.43307
53 1 -7.81857 11.734 8.89196
54 1 -7.99797 12.6295 8.55082
55 1 -8.16447 13.4682 8.18394
56 1 -7.93458 14.3531 7.93177
57 1 -7.79583 15.1609 7.37555
58 1 -7.67566 15.803 6.71957
59 1 -7.62928 16.0818 5.80647
60 1 -7.80473 16.5301 4.97335
61 1 -8.1604 16.9231 4.19077
62 1 -8.65682 17.3374 3.49892
63 1 -8.99669 17.9514 2.89595
64 1 -9.61596 18.5564 2.59641
65 1 -10.2077 19.323 2.49347
66 1 -10.5474 20.2371 2.357
67 1 -10.3366 21.0444 1.99776
68 1 -10.0339 21.5161 1.27073
69 1 -9.72975 22.1068 0.637288
70 1 -9.00687 22.5716 0.214779
71 1 -8.32643 22.9408 -0.314307
72 1 -7.79152 23.562 -0.836384
73 1 -7.81577 24.1938 -1.54958
74 1 -7.92972 24.6882 -2.35079
75 1 -8.68209 24.9351 -2.83316
76 1 -9.49049 24.6901 -3.35576
77 1 -10.23 24.4146 -3.91578
78 1 -11.049 24.0743 -4.24732
79 1 -11.7886 23.4686 -4.40479
80 1 -12.4931 22.8584 -4.54785
81 1 -13.1743 22.1985 -4.45808
82 1 -13.8414 21.5916 -4.14416
83 1 -13.9122 20.5826 -4.08634
84 1 -13.9877 19.702 -3.90542
85 1 -14.064 18.761 -3.58866
86 1 -14.2389 17.8152 -3.30783
87 1 -14.1578 17.006 -2.83571
88 1 -14.0076 16.317 -2.18012
89 1 -13.8376 15.7388 -1.50756
90 1 -13.3377 15.1893 -0.922889
91 1 -12.8456 14.5859 -0.355016
92 1 -12.288 13.9944 0.0751128
93 1 -12.0579 13.3248 0.64097
94 1 -11.8734 12.5051 1.06559
95 1 -11.5546 11.6992 1.49189
96 1 -10.9951 11.0726 1.86951
97 1 -10.4822 10.2433 1.70932
98 1 -9.84178 9.51741 1.61187
99 1 -9.11512 8.90492 1.39378
100 1 -8.43714 8.25472 1.44284
101 1 -7.71738 7.62037 1.38525
102 1 -7.11394 6.89661 1.33632
103 1 -6.56893 6.18951 1.0589
104 1 -5.95346 5.53011 0.670805
105 1 -5.34613 4.86306 0.309586
106 1 -4.89772 4.19784 -0.271499
107 1 -4.14164 3.77647 -0.621154
108 1 -3.24272 3.66286 -0.831164
109 1 -2.36164 3.58311 -1.19491
110 1 -1.50811 3.28283 -1.48731
111 1 -0.54922 3.44379 -1.60252
112 1 0.301926 3.70483 -2.00802
113 1 1.25208 3.52947 -2.23308
114 1 2.15669 3.2871 -2.28769
115 1 3.08851 3.25168 -2.57238
116 1 4.02739 3.44526 -2.59555
117 1 4.88944 3.80482 -2.66919
118 1 5.51205 4.05358 -3.36491
119 1 5.99129 4.47448 -4.07831
120 1 6.35626 4.69189 -4.924
121 1 6.46093 5.23828 -5.67099
122 1 6.57094 5.90788 -6.32196
123 1 6.39615 6.73634 -6.75355
124 1 6.2555 7.42495 -7.36416
125 1 6.30341 7.91856 -8.12781
126 1 6.51117 8.2693 -8.91775
127 1 6.55065 8.46065 -9.86789
128 1 6.62053 8.51616 -10.8235
129 1 6.60769 9.01362 -11.6702
130 1 6.71128 9.39901 -12.5077
131 1 6.86517 9.51937 -13.4341
132 1 6.81244 10.2331 -14.1565
133 1 6.94773 10.6599 -14.9725
134 1 7.0416 11.2284 -15.7423
135 1 6.9735 11.7371 -16.5635
136 1 7.25182 12.2589 -17.3334
137 1 7.59888 12.976 -17.9049
138 1 7.54418 13.7295 -18.4794
139 1 7.1335 14.5681 -18.8689
140 1 6.64886 15.2867 -19.1558
141 1 6.37371 16.0879 -19.508
142 1 6.12201 16.8991 -19.8708
143 1 5.6027 17.3728 -20.4967
144 1 5.07329 17.6238 -21.2215
145 1 4.37281 17.3554 -21.9132
146 1 3.72251 17.1216 -22.601
147 1 3.02743 17.0095 -23.1404
148 1 2.35372 16.8383 -23.7389
149 1 1.51706 16.5485 -24.2833
150 1 0.736328 16.4147 -24.8583
151 1 0.0261848 16.1498 -25.4068
152 1 -0.650046 15.5941 -25.6221
153 1 -1.35297 14.9866 -25.547
154 1 -1.8854 14.1415 -25.5461
155 1 -2.60324 13.51 -25.4522
156 1 -3.36758 12.9608 -25.4091
157 1 -4.05307 12.4211 -25.6207
158 1 -4.57213 11.6364 -25.8014
159 1 -4.95738 10.7404 -25.8043
160 1 -5.43825 9.94007 -25.7963
161 1 -6.00307 9.38059 -25.2869
162 1 -6.67364 8.88627 -24.8593
163 1 -7.39992 8.49391 -24.3489
164 1 -8.0735 7.8932 -24.0427
165 1 -8.54344 7.25978 -23.583
166 1 -8.83579 6.38595 -23.5037
167 1 -9.04889 5.46333 -23.6772
168 1 -9.14093 4.4696 -23.7284
169 1 -9.38089 3.51803 -23.6727
170 1 -9.58295 2.6088 -23.8642
171 1 -9.92029 1.74323 -24.0965
172 1 -9.92326 0.84223 -24.2686
173 1 -10.0894 -0.106018 -24.2379
174 1 -9.59765 -0.921219 -24.3615