ITEM: TIMESTEP
810000
ITEM: NUMBER OF ATOMS
256
ITEM: BOX BOUNDS mm mm mm
-1.2800000000000000e+02 1.2800000000000000e+02
-1.2800000000000000e+02 1.2800000000000000e+02
-1.2800000000000000e+02 1.2800000000000000e+02
ITEM: ATOMS id type x y z
1 1 -36.9086 3.18278 19.7216
2 1 -36.8211 3.00992 20.6646
3 1 -35.8863 3.0364 20.5599
4 1 -35.0834 3.50463 20.5192
5 1 -34.273 3.91799 20.3264
6 1 -34.5496 4.82234 20.2926
7 1 -35.0034 5.5883 20.6615
8 1 -35.7132 5.7479 20.0447
9 1 -36.3122 5.94618 19.4305
10 1 -37.1554 6.36752 19.3107
11 1 -37.7694 6.75891 19.8573
12 1 -38.5918 6.21409 19.8018
13 1 -38.5147 5.42285 19.338
14 1 -38.9075 5.28187 20.1449
15 1 -38.6191 4.85303 20.917
16 1 -38.5017 4.03682 21.3842
17 1 -38.6004 3.17267 21.0282
18 1 -39.2312 2.83544 20.3674
19 1 -39.9809 2.67817 19.8333
20 1 -40.9163 2.57211 19.6934
21 1 -41.0036 3.52466 19.5347
22 1 -40.6114 4.41535 19.4988
23 1 -40.6407 5.3215 19.5829
24 1 -41.462 5.69173 19.8435
25 1 -41.3423 6.5562 19.5273
26 1 -42.0203 6.77522 18.8941
27 1 -42.0964 7.48117 18.2352
28 1 -42.1684 8.08942 17.5089
29 1 -42.8922 8.33738 16.9901
30 1 -42.769 9.08926 16.4045
31 1 -42.4888 9.98455 16.479
32 1 -41.7356 10.4396 16.0202
33 1 -40.9502 10.664 15.608
34 1 -40.4894 10.9514 14.8134
35 1 -39.7898 10.628 14.2657
36 1 -39.3197 10.0061 13.7112
37 1 -38.7651 9.36097 13.3339
38 1 -38.6301 8.59966 12.7772
39 1 -38.0249 7.9133 12.8726
40 1 -37.0441 7.77238 12.9029
41 1 -36.3112 7.34648 12.6324
42 1 -35.632 7.9503 12.9662
43 1 -35.0573 8.65734 13.0503
44 1 -34.1984 8.23689 12.9609
45 1 -33.418 7.67839 12.7375
46 1 -32.5732 7.56109 12.3547
47 1 -31.83 7.79551 11.8607
48 1 -31.1958 7.52701 11.2464
49 1 -30.3793 7.66672 10.7856
50 1 -29.4563 7.80237 10.7912
51 1 -29.6499 7.79869 9.85614
52 1 -29.5524 7.79717 8.91716
53 1 -29.3847 6.87939 9.07825
54 1 -29.63 6.60368 8.20519
55 1 -28.6917 6.43197 8.39078
56 1 -27.9672 6.9942 7.99079
57 1 -27.2916 7.80174 7.68908
58 1 -26.3685 7.46939 7.77945
59 1 -26.3886 6.79861 8.4149
60 1 -25.609 6.22491 8.55383
61 1 -25.7296 5.33005 8.80143
62 1 -25.7013 4.44848 8.95156
63 1 -25.2929 3.62805 9.12781
64 1 -25.2633 4.07288 9.93703
65 1 -25.3523 4.92124 10.3469
66 1 -25.0598 5.84929 10.4947
67 1 -24.4819 6.34037 9.95022
68 1 -23.7352 6.22445 9.36403
69 1 -22.8803 6.50144 8.99375
70 1 -22.4235 7.28447 8.68604
71 1 -21.617 6.90809 8.98955
72 1 -20.8939 6.31726 8.97839
73 1 -20.643 5.47808 9.35745
74 1 -21.2583 4.78529 9.52194
75 1 -21.9642 4.27169 9.08349
76 1 -22.076 3.56193 9.65018
77 1 -21.7107 2.87228 10.2137
78 1 -20.8953 2.53828 10.6124
79 1 -20.2916 3.19119 10.8047
80 1 -19.5323 3.59764 11.2058
81 1 -18.8334 4.13804 11.5294
82 1 -18.3162 4.58292 12.1582
83 1 -17.7415 4.07189 11.6375
84 1 -18.133 3.46612 12.2692
85 1 -18.6461 2.76049 12.6895
86 1 -19.3443 2.99445 13.2281
87 1 -18.8759 3.63358 13.7784
88 1 -18.4607 3.35162 14.5719
89 1 -17.7772 2.6889 14.8324
90 1 -17.2727 2.85679 15.6135
91 1 -16.9878 3.69251 15.393
92 1 -16.3354 4.0672 15.9867
93 1 -15.4298 4.17395 16.1735
94 1 -14.6665 4.67141 16.1031
95 1 -14.2012 4.47502 15.3486
96 1 -14.067 3.93488 14.5851
97 1 -13.3196 4.42556 14.3421
98 1 -12.6086 5.03612 14.4561
99 1 -11.911 5.62856 14.6558
100 1 -11.2939 6.10562 15.2314
101 1 -10.9452 6.84244 15.6775
102 1 -10.6306 7.66728 16.0482
103 1 -10.6488 8.53643 16.4746
104 1 -10.9538 9.45659 16.534
105 1 -10.9819 10.3897 16.7166
106 1 -11.5819 10.8297 16.19
107 1 -12.1407 11.5886 15.9908
108 1 -12.7675 11.6331 15.3345
109 1 -13.5364 12.2826 15.1942
110 1 -14.0081 11.8835 14.5358
111 1 -14.5188 12.0288 13.7892
112 1 -13.7898 12.4472 13.4408
113 1 -12.8646 12.1411 13.5742
114 1 -12.2773 11.5669 13.0045
115 1 -11.6057 11.3721 13.6511
116 1 -10.7154 11.2023 13.5867
117 1 -10.1526 11.3911 14.3334
118 1 -9.62334 11.7139 15.04
119 1 -9.58988 12.578 15.3977
120 1 -9.45242 12.3627 16.343
121 1 -8.49251 12.1508 16.5497
122 1 -7.71651 12.6201 16.6591
123 1 -7.09929 13.39 16.7803
124 1 -6.63882 14.1972 16.5327
125 1 -6.29663 13.8464 15.6766
126 1 -6.15998 13.5579 14.771
127 1 -5.82088 13.2957 13.9362
128 1 -5.47062 12.4212 13.7224
129 1 -4.56796 12.1456 13.7119
130 1 -4.13085 11.2932 13.7656
131 1 -3.48784 11.5843 14.4207
132 1 -2.57273 11.5968 14.5427
133 1 -2.23512 10.7342 14.3634
134 1 -1.90884 10.0998 13.7764
135 1 -1.23045 9.59176 13.3857
136 1 -1.06846 8.78867 12.9075
137 1 -1.65484 8.54618 12.1895
138 1 -1.86824 8.37431 11.2683
139 1 -1.89565 7.92113 10.4834
140 1 -1.81029 7.62418 9.60978
141 1 -1.11803 7.22999 8.95412
142 1 -0.913115 6.32298 9.22194
143 1 -0.509011 5.46811 9.33316
144 1 0.380281 5.67073 9.16652
145 1 1.08123 5.4361 8.59386
146 1 1.82722 5.36751 8.00688
147 1 1.71753 5.75665 7.15507
148 1 1.62104 5.44015 6.2335
149 1 1.75217 4.53848 6.3031
150 1 2.4659 4.3298 5.70755
151 1 3.33428 3.79463 5.73066
152 1 4.1974 3.80488 5.31776
153 1 4.28615 4.73012 5.30745
154 1 4.97723 5.30332 4.90203
155 1 5.479 5.26159 4.11422
156 1 6.24148 5.16193 3.55797
157 1 6.94024 5.71077 3.29111
158 1 7.86672 5.66042 3.33816
159 1 8.81274 5.42569 3.32258
160 1 9.57175 4.99202 2.87436
161 1 10.4774 4.85485 2.78361
162 1 11.2621 4.37436 2.69591
163 1 12.0874 4.89752 2.62513
164 1 12.4761 4.07919 2.4531
165 1 12.6338 3.71801 1.57731
166 1 13.3093 3.37006 0.993245
167 1 13.8104 2.54521 0.851388
168 1 14.2984 2.13443 1.53731
169 1 14.5542 1.43228 0.957304
170 1 14.0765 0.767114 0.441778
171 1 13.3604 0.0943941 0.483995
172 1 12.6303 0.185446 -0.174471
173 1 12.1662 -0.191508 -0.894808
174 1 11.491 -0.831827 -0.989544
175 1 11.6935 -0.87237 -1.88508
176 1 11.6831 -1.30139 -2.71392
177 1 11.4908 -2.19909 -3.10986
178 1 11.3852 -2.93802 -2.58506
179 1 11.6195 -3.51124 -1.81243
180 1 10.8925 -3.81271 -1.30941
181 1 11.3425 -4.31235 -0.610359
182 1 12.0149 -4.82791 -0.284714
183 1 12.3644 -4.18262 0.427994
184 1 13.2398 -3.74067 0.610328
185 1 14.0153 -3.18004 0.658578
186 1 14.5054 -2.41096 0.452199
187 1 14.8942 -2.67901 -0.348838
188 1 15.0545 -3.52823 -0.636935
189 1 15.0718 -4.43911 -0.487738
190 1 15.1938 -5.34351 -0.13804
191 1 15.3292 -6.00732 0.514506
192 1 14.6883 -5.91889 1.20959
193 1 14.0419 -5.5773 1.78275
194 1 13.4785 -4.91082 2.18185
195 1 13.0119 -5.2718 1.43977
196 1 12.5791 -5.72451 0.772152
197 1 11.7918 -5.955 0.363425
198 1 11.0174 -5.64929 -0.172149
199 1 10.1611 -5.43341 0.0955131
200 1 9.49064 -6.07337 -0.228236
201 1 8.62403 -6.41634 -0.444046
202 1 7.74693 -6.34157 0.00476932
203 1 7.15383 -6.87843 0.488386
204 1 6.92647 -7.77279 0.775191
205 1 6.73928 -8.67278 0.958116
206 1 6.17324 -8.97937 1.61053
207 1 6.63231 -9.73354 1.83903
208 1 6.20182 -10.0367 2.63621
209 1 5.30675 -10.3279 2.48743
210 1 4.7772 -11.0428 2.16459
211 1 3.87949 -11.0663 1.97837
212 1 3.54244 -11.6049 1.25947
213 1 3.1276 -12.349 1.59991
214 1 2.75672 -12.8498 2.23675
215 1 3.13902 -13.5029 2.79155
216 1 4.00596 -13.2076 2.98533
217 1 4.70807 -13.2628 3.61272
218 1 5.67173 -13.1587 3.62513
219 1 6.06208 -13.2919 4.51547
220 1 6.80014 -13.0798 5.02967
221 1 7.60785 -13.352 5.42074
222 1 8.02125 -13.8949 6.14139
223 1 7.88313 -14.7825 6.36464
224 1 8.31335 -15.639 6.56228
225 1 8.21162 -15.7147 7.5069
226 1 8.55423 -15.8713 8.41534
227 1 8.94545 -16.3246 9.09761
228 1 8.65728 -17.0518 8.59085
229 1 7.78787 -16.6689 8.53978
230 1 6.92814 -16.4458 8.79362
231 1 5.99586 -16.5455 8.63124
232 1 5.2685 -16.0936 9.05155
233 1 4.34073 -15.8047 8.77959
234 1 3.83041 -15.17 9.19124
235 1 3.85049 -14.3019 8.94488
236 1 3.97285 -13.3855 8.75591
237 1 3.85645 -12.4888 8.67541
238 1 4.26808 -11.6755 8.42923
239 1 5.07676 -11.2759 8.57451
240 1 5.92181 -10.8504 8.32399
241 1 6.52622 -10.4609 8.89773
242 1 6.96903 -10.0946 9.60867
243 1 6.30426 -9.52035 9.84552
244 1 5.72063 -10.1318 10.1573
245 1 4.96703 -10.2148 10.7918
246 1 4.7623 -10.4591 11.6603
247 1 4.3135 -9.73218 12.084
248 1 4.57368 -9.07123 12.7197
249 1 5.37406 -8.88156 13.1683
250 1 6.07278 -8.85813 13.809
251 1 5.96012 -9.3122 14.6249
252 1 5.97579 -9.98031 15.2511
253 1 6.41572 -10.8001 15.1171
254 1 7.01267 -11.4304 15.4708
255 1 7.78949 -11.8925 15.2691
256 1 8.68336 -11.825 15.5607
ITEM: TIMESTEP
820000
ITEM: NUMBER OF ATOMS
256
ITEM: BOX BOUNDS mm mm mm
-1.2800000000000000e+02 1.2800000000000000e+02
-1.2800000000000000e+02 1.2800000000000000e+02
-1.2800000000000000e+02 1.2800000000000000e+02
ITEM: ATOMS id type x y z
1 1 -36.4024 2.29015 12.2788
2 1 -36.7245 1.88913 13.0837
3 1 -36.9786 1.59023 13.9205
4 1 -37.6442 1.38745 14.6165
5 1 -37.7349 0.626757 15.0698
6 1 -37.6685 -0.284236 15.2195
7 1 -37.3581 -0.347557 16.1913
8 1 -37.4499 0.297603 16.8434
9 1 -37.2146 0.938162 17.4731
10 1 -37.4616 0.979099 18.3833
11 1 -38.1745 0.374128 18.4535
12 1 -38.5005 0.847803 19.2334
13 1 -38.7254 0.726347 20.147
14 1 -39.3174 0.963532 20.8298
15 1 -40.0501 0.548843 21.2486
16 1 -40.4429 -0.21113 21.6748
17 1 -41.1809 -0.812075 21.5795
18 1 -41.5202 -1.32986 20.8343
19 1 -41.2509 -1.23783 19.8965
20 1 -40.5716 -1.13218 19.1923
21 1 -40.4701 -0.185401 19.3472
22 1 -41.1194 0.0575892 18.6915
23 1 -41.5149 0.873428 18.6011
24 1 -42.239 0.903666 19.3025
25 1 -42.0833 1.84124 19.34
26 1 -41.7194 2.49695 18.8263
27 1 -41.2854 3.01576 18.1186
28 1 -40.973 3.10752 17.2016
29 1 -40.6566 2.56733 16.5404
30 1 -39.6514 2.64333 16.5655
31 1 -38.7747 2.90509 16.8467
32 1 -38.0639 3.5128 16.9935
33 1 -37.4004 4.00761 16.5579
34 1 -36.4826 4.05412 16.2114
35 1 -36.3922 4.60456 15.4692
36 1 -36.3711 4.75472 14.5677
37 1 -37.0238 4.9397 13.8181
38 1 -37.182 4.43716 12.9999
39 1 -36.443 4.99414 12.7324
40 1 -36.0543 5.58099 12.1022
41 1 -35.4123 5.49783 11.4069
42 1 -34.7953 5.70558 10.7328
43 1 -34.2931 5.85596 9.95705
44 1 -33.6711 5.93576 9.26781
45 1 -32.7627 6.18885 9.34987
46 1 -32.2837 6.84656 8.8332
47 1 -31.51 7.15119 9.29061
48 1 -30.7173 6.98621 8.79292
49 1 -29.78 6.97573 8.60505
50 1 -28.7954 6.95721 8.54582
51 1 -28.0707 7.06973 9.18278
52 1 -28.0356 6.4538 9.90585
53 1 -27.271 6.38363 10.3916
54 1 -26.6236 5.76289 10.4483
55 1 -26.5317 4.81009 10.6311
56 1 -25.9464 4.20066 11.0056
57 1 -26.2371 3.47253 11.4392
58 1 -25.5939 3.67713 12.0657
59 1 -25.3447 4.00663 12.9163
60 1 -25.3408 3.81048 13.8244
61 1 -24.548 4.39116 13.9195
62 1 -23.6844 4.78253 13.841
63 1 -22.8335 4.8858 14.1338
64 1 -21.9336 5.1382 14.1704
65 1 -21.7404 4.22103 14.029
66 1 -22.2692 3.99532 14.7721
67 1 -21.5905 3.60924 15.3022
68 1 -21.2102 3.17365 16.0238
69 1 -20.8711 2.78946 16.8221
70 1 -20.6154 1.94793 17.2004
71 1 -21.2925 1.64411 17.8341
72 1 -21.4463 1.00112 18.4698
73 1 -21.39 1.33314 19.3735
74 1 -20.7082 1.84188 19.8098
75 1 -20.3692 1.24164 19.1731
76 1 -19.6038 0.71977 19.0263
77 1 -19.0684 1.37097 18.5618
78 1 -18.5271 1.95144 18.0628
79 1 -18.6405 2.68276 17.4994
80 1 -17.9547 3.28778 17.1575
81 1 -17.2593 3.24965 16.5052
82 1 -16.9901 2.50926 16.0247
83 1 -17.0938 2.13837 15.1183
84 1 -16.5366 2.38038 14.4053
85 1 -16.3888 2.93849 13.6285
86 1 -16.6712 3.70687 13.1557
87 1 -16.4458 4.31434 12.5241
88 1 -15.9463 5.05965 12.4394
89 1 -15.6187 5.90721 12.6968
90 1 -14.744 5.76552 13.0733
91 1 -14.3896 5.6567 13.8987
92 1 -13.9259 6.46807 13.7772
93 1 -13.7024 6.57122 12.8109
94 1 -13.3778 7.14054 12.0731
95 1 -13.1236 8.02365 12.2292
96 1 -12.7271 8.75525 11.8548
97 1 -12.7433 9.68521 12.0482
98 1 -12.2359 10.4749 11.8304
99 1 -11.8042 10.8968 11.1032
100 1 -10.9779 11.2986 10.8611
101 1 -10.1318 10.9301 11.1669
102 1 -9.32518 10.5721 11.4604
103 1 -8.89389 11.0623 10.7342
104 1 -8.73885 11.9476 10.4243
105 1 -8.69113 12.112 11.378
106 1 -8.55677 12.1124 12.3268
107 1 -9.15048 12.4181 12.9622
108 1 -9.6244 11.8948 13.6588
109 1 -10.3534 11.8475 14.2253
110 1 -9.8424 11.0754 14.3056
111 1 -9.03425 10.7235 14.71
112 1 -8.26039 10.7956 15.3172
113 1 -8.12251 10.8459 16.276
114 1 -8.14302 11.5999 16.8575
115 1 -7.99552 12.4124 16.4267
116 1 -7.61506 12.874 15.6813
117 1 -7.19337 13.0079 14.833
118 1 -6.67067 12.7332 14.1024
119 1 -5.78833 12.4627 14.0108
120 1 -4.91756 12.49 13.6937
121 1 -5.09583 13.164 13.0849
122 1 -5.58182 13.5303 12.3506
123 1 -5.44966 12.9463 11.6565
124 1 -5.84334 12.7315 10.8238
125 1 -5.41779 12.4885 10.0102
126 1 -4.54897 12.0166 10.1055
127 1 -3.76939 11.8002 10.5853
128 1 -3.64662 11.7731 11.5614
129 1 -3.18651 10.9823 11.4677
130 1 -3.55159 10.3265 10.8975
131 1 -3.70048 9.41962 10.6872
132 1 -3.52042 9.24298 9.74713
133 1 -3.23063 9.42059 8.85968
134 1 -2.67016 8.81877 8.40613
135 1 -2.05718 8.13244 8.68832
136 1 -1.4945 8.04779 7.96852
137 1 -0.9368 7.70587 7.30277
138 1 -0.0505731 7.67773 7.07835
139 1 0.721415 8.21332 7.31382
140 1 1.29899 7.44369 7.43605
141 1 1.17628 6.89685 8.15785
142 1 1.18481 6.11578 8.62487
143 1 1.64749 5.34139 8.36665
144 1 2.10469 4.87533 7.6965
145 1 2.69493 4.25729 7.34045
146 1 3.49144 4.09804 6.78917
147 1 3.95161 3.57515 6.21948
148 1 4.29986 4.24469 5.63503
149 1 4.59456 4.73201 4.87754
150 1 5.02698 3.9594 4.56575
151 1 5.80301 3.84183 5.10579
152 1 6.54318 3.42778 4.82114
153 1 7.28814 2.9478 5.18306
154 1 8.13089 3.35577 5.07764
155 1 8.178 3.35685 4.14222
156 1 8.67782 3.9019 3.65295
157 1 9.48952 3.56209 3.27004
158 1 10.125 2.9752 2.89643
159 1 10.6392 2.25615 2.58147
160 1 11.2162 1.90179 1.90702
161 1 11.4736 1.33555 1.14994
162 1 11.4375 1.53787 0.258313
163 1 10.6963 1.17791 -0.181133
164 1 10.2446 0.573587 -0.800545
165 1 9.68084 -0.0556082 -1.32233
166 1 10.3664 -0.343272 -1.89568
167 1 11.2734 -0.17822 -1.75244
168 1 11.7649 0.586844 -1.67139
169 1 11.9307 0.787172 -0.79113
170 1 12.4294 0.0983262 -0.36246
171 1 13.2184 -0.465273 -0.114611
172 1 13.4493 -0.857761 0.701081
173 1 14.3246 -1.10027 0.874046
174 1 13.7976 -1.87041 1.21165
175 1 13.7168 -2.24386 2.03454
176 1 12.8111 -1.97403 2.16108
177 1 12.5553 -2.21599 1.25
178 1 11.8785 -2.80042 0.899446
179 1 12.1856 -3.63225 0.707735
180 1 11.4694 -3.80764 0.143091
181 1 11.3933 -4.68968 0.176011
182 1 11.417 -5.49705 0.664807
183 1 11.4961 -6.26058 1.16517
184 1 11.652 -5.62514 1.86045
185 1 12.013 -5.18932 2.56868
186 1 12.4802 -4.94834 3.34714
187 1 12.4294 -5.57731 4.00333
188 1 12.2815 -5.37148 4.92452
189 1 11.7581 -4.83847 5.47482
190 1 10.9375 -4.53041 5.84674
191 1 10.4524 -5.33193 5.98459
192 1 10.9594 -6.14134 5.97224
193 1 10.5193 -6.26101 5.1971
194 1 9.60744 -6.10372 5.13251
195 1 9.29404 -5.84711 4.26234
196 1 8.39276 -6.04451 4.2435
197 1 7.83312 -5.87812 3.4793
198 1 7.79886 -6.17851 2.51464
199 1 7.78577 -5.62546 1.75043
200 1 7.04878 -5.25582 1.25006
201 1 6.97272 -5.23762 2.23646
202 1 7.24777 -4.76781 2.9783
203 1 7.38859 -4.31974 3.77893
204 1 7.7689 -4.61509 4.63888
205 1 8.15104 -4.81672 5.5297
206 1 8.36496 -5.31464 6.29859
207 1 8.58443 -6.17912 6.66985
208 1 8.42915 -7.07944 6.93981
209 1 7.53201 -7.35773 7.07141
210 1 7.43579 -8.21318 6.67171
211 1 6.92121 -8.36876 5.90217
212 1 5.96442 -8.25593 5.94592
213 1 6.33427 -8.28444 5.03266
214 1 6.71344 -9.13697 4.80454
215 1 7.30616 -9.89542 4.64525
216 1 7.90032 -10.6328 4.62168
217 1 8.35482 -11.4912 4.70976
218 1 8.52086 -12.0912 5.40324
219 1 9.03344 -11.9048 6.14596
220 1 8.86152 -12.356 6.96462
221 1 8.86596 -12.7454 7.78948
222 1 8.10731 -12.832 8.31327
223 1 7.3629 -12.474 8.89619
224 1 6.64787 -11.9379 9.28289
225 1 6.12941 -11.1151 9.35268
226 1 5.62511 -10.3275 9.52213
227 1 5.02117 -10.9398 9.95511
228 1 4.43687 -11.5996 10.3158
229 1 4.62449 -12.4927 10.57
230 1 4.57422 -12.9497 11.4135
231 1 4.21128 -13.7295 11.7624
232 1 3.45495 -14.1826 12.2468
233 1 3.31079 -13.5664 12.9394
234 1 2.75446 -13.357 13.7079
235 1 3.08471 -12.5787 14.2668
236 1 2.61402 -11.875 14.6459
237 1 2.2967 -10.967 14.6698
238 1 2.83188 -10.3792 15.1527
239 1 3.40855 -9.72561 15.5919
240 1 3.88261 -10.2292 16.2014
241 1 4.30148 -10.9061 16.6736
242 1 3.9562 -11.7691 16.9835
243 1 4.50466 -12.4803 16.7486
244 1 5.19066 -11.9863 17.1453
245 1 5.96322 -11.8489 16.6188
246 1 6.89274 -11.8354 16.8004
247 1 7.63912 -11.2639 16.972
248 1 7.51934 -10.5733 17.6123
249 1 6.93682 -10.5669 18.345
250 1 6.55523 -10.4399 19.1681
251 1 7.23621 -10.2548 19.8035
252 1 7.7382 -10.9628 19.5563
253 1 7.85828 -11.9079 19.4318
254 1 8.13106 -12.5444 20.1664
255 1 7.3278 -13.012 19.9149
256 1 6.60298 -12.4803 20.1532
ITEM: TIMESTEP
830000
ITEM: NUMBER OF ATOMS
256
ITEM: BOX BOUNDS mm mm mm
-1.2800000000000000e+02 1.2800000000000000e+02
-1.2800000000000000e+02 1.2800000000000000e+02
-1.2800000000000000e+02 1.2800000000000000e+02
ITEM: ATOMS id type x y z
1 1 -38.349 0.107688 16.1865
2 1 -38.6341 -0.570561 16.7825
3 1 -39.1856 0.0732307 17.1522
4 1 -39.9488 0.294213 17.6894
5 1 -40.6214 0.807679 17.9752
6 1 -40.9705 1.58195 18.4573
7 1 -41.4688 1.62137 19.2299
8 1 -42.412 1.71274 19.1743
9 1 -42.8773 2.23335 18.5244
10 1 -42.8145 3.08676 18.183
11 1 -43.1158 3.94698 18.5082
12 1 -43.7377 4.3186 19.0782
13 1 -44.2249 4.65176 18.4106
14 1 -44.0076 5.18077 17.6998
15 1 -43.8189 4.62707 16.9411
16 1 -43.4435 5.15852 16.2803
17 1 -43.5125 5.47914 15.4076
18 1 -43.232 5.29142 14.4645
19 1 -42.6874 5.10897 13.6815
20 1 -41.8429 5.29196 13.3141
21 1 -41.8376 4.94801 12.4368
22 1 -42.2283 5.20287 11.6281
23 1 -42.8771 5.23177 10.8918
24 1 -43.0999 5.63373 10.0738
25 1 -42.2446 5.8609 9.75536
26 1 -41.3199 6.13078 9.71563
27 1 -40.5334 5.86267 9.30762
28 1 -39.5891 5.96386 9.06878
29 1 -39.0884 6.28321 8.36052
30 1 -38.8439 6.67277 7.56309
31 1 -38.1789 6.69113 6.93277
32 1 -37.5703 5.97888 6.84835
33 1 -36.8203 6.05419 6.24743
34 1 -35.8947 6.29143 6.15828
35 1 -35.8468 7.27023 6.15071
36 1 -35.8491 7.77969 5.31945
37 1 -34.9469 7.88915 5.31617
38 1 -34.5046 8.08736 6.12628
39 1 -34.1067 7.77945 6.9117
40 1 -34.0652 7.30266 7.74264
41 1 -33.7114 7.0621 8.6311
42 1 -33.9495 7.48834 9.44677
43 1 -33.3164 7.54725 10.1977
44 1 -32.4051 7.63807 10.2429
45 1 -31.5696 8.17941 10.283
46 1 -30.6184 8.3449 10.1831
47 1 -29.959 7.74525 9.95067
48 1 -29.2702 7.17829 9.64889
49 1 -28.6051 6.55328 9.78448
50 1 -28.6762 5.68056 10.1988
51 1 -29.087 5.61261 11.0739
52 1 -28.8355 5.87254 11.9257
53 1 -28.2176 5.75232 12.6057
54 1 -27.3375 5.72284 12.1853
55 1 -26.4637 5.99196 12.4355
56 1 -25.6066 5.77482 12.8518
57 1 -24.6931 6.00233 12.9936
58 1 -24.3232 5.18912 12.7396
59 1 -24.0672 4.3931 12.3065
60 1 -23.3674 4.0427 12.9196
61 1 -23.1256 3.35963 13.5959
62 1 -23.2313 2.48198 13.9533
63 1 -22.8993 1.64273 13.7888
64 1 -22.3611 1.82288 14.5745
65 1 -21.6572 1.75652 15.1853
66 1 -20.8843 2.21093 15.2543
67 1 -19.9716 2.26851 15.2034
68 1 -19.3426 2.13091 14.5378
69 1 -19.5077 2.90697 13.9884
70 1 -19.2488 3.80691 13.8295
71 1 -19.6114 4.68443 13.7129
72 1 -19.178 4.96945 12.8755
73 1 -19.1532 5.21901 11.9836
74 1 -18.4288 5.39346 11.3784
75 1 -18.4889 5.41293 10.3994
76 1 -18.5926 6.28801 9.99549
77 1 -18.785 7.12221 9.68497
78 1 -18.4635 7.59234 10.4632
79 1 -18.9936 7.9184 11.1919
80 1 -19.8855 8.12908 11.5528
81 1 -20.5746 7.88367 12.1391
82 1 -21.2361 7.90008 11.4776
83 1 -21.0653 7.04389 11.1235
84 1 -21.1418 6.04435 11.1163
85 1 -20.7045 5.48736 11.7448
86 1 -20.5992 5.82552 12.6676
87 1 -20.1614 6.0045 13.4642
88 1 -19.2692 6.17652 13.4601
89 1 -18.3815 6.25301 13.7626
90 1 -18.2075 6.96605 14.3677
91 1 -18.3222 7.82877 13.9612
92 1 -18.0774 7.87255 13.0403
93 1 -17.6303 7.45899 12.2897
94 1 -16.6955 7.38489 12.1006
95 1 -16.3765 6.57766 12.4656
96 1 -16.0303 6.04183 13.1825
97 1 -15.1655 6.47935 13.2813
98 1 -14.6713 6.3852 12.5176
99 1 -14.309 6.55586 11.6955
100 1 -14.5287 7.18579 10.9766
101 1 -14.1072 7.58092 10.2289
102 1 -13.3516 8.1241 10.208
103 1 -12.5242 8.29976 9.96216
104 1 -12.3632 9.22974 9.99051
105 1 -11.9161 10.1045 10.0925
106 1 -11.281 10.4124 9.45448
107 1 -10.8549 10.6582 8.64523
108 1 -10.9988 10.9933 7.77982
109 1 -10.2823 11.5386 8.03227
110 1 -9.38065 11.6332 8.30781
111 1 -8.46232 11.6079 8.48733
112 1 -7.81786 11.5871 9.22175
113 1 -7.12991 11.2205 9.78474
114 1 -7.06342 10.3077 10.0621
115 1 -6.44018 9.66347 10.2848
116 1 -5.84361 8.93338 10.3724
117 1 -5.93191 7.98931 10.5322
118 1 -5.9243 7.0698 10.5439
119 1 -5.38112 6.27896 10.5026
120 1 -4.41172 6.2956 10.4581
121 1 -4.45686 5.88781 9.63044
122 1 -4.73737 5.7804 8.72177
123 1 -4.3282 4.99432 8.43321
124 1 -4.05484 4.09904 8.25446
125 1 -3.92171 4.55737 7.40805
126 1 -3.88191 4.25511 6.55079
127 1 -3.62778 4.95204 5.92768
128 1 -2.92175 5.17799 5.26433
129 1 -2.15865 5.14497 4.70603
130 1 -1.38422 5.06606 4.21145
131 1 -0.52266 4.94667 3.78697
132 1 -0.243169 4.89803 2.85007
133 1 0.537916 4.53669 2.36604
134 1 1.41341 4.48819 2.08065
135 1 2.18824 5.0215 2.22369
136 1 3.08607 4.81847 2.19252
137 1 3.31139 5.73423 2.08116
138 1 4.06443 5.92793 2.59538
139 1 4.8682 5.67659 3.03257
140 1 5.70685 5.26223 3.14289
141 1 5.8383 4.40438 3.4478
142 1 6.02285 4.28089 2.55928
143 1 6.74537 3.90224 2.15756
144 1 7.1158 3.84294 3.06815
145 1 7.87676 4.04092 3.53528
146 1 8.11959 4.44883 2.76395
147 1 8.42985 3.5784 2.86199
148 1 9.37711 3.71435 2.87347
149 1 9.84077 3.26428 3.58891
150 1 10.7396 3.16851 3.45474
151 1 10.4582 2.34415 3.01035
152 1 10.9016 2.95744 2.42001
153 1 11.1061 2.45676 1.67111
154 1 11.6977 1.82685 1.36748
155 1 11.7009 0.932755 1.02447
156 1 11.7706 0.152672 1.48964
157 1 12.1817 -0.441462 2.09291
158 1 12.0955 -1.00186 2.81272
159 1 11.9339 -1.41592 3.64041
160 1 11.7094 -1.96571 4.42178
161 1 12.2371 -2.08918 5.17681
162 1 13.1733 -1.93417 5.40692
163 1 14.1203 -1.86314 5.47625
164 1 14.4258 -1.02376 5.2313
165 1 14.9497 -1.07954 4.44721
166 1 14.87 -0.731745 3.5397
167 1 15.226 -1.5256 3.11949
168 1 15.7491 -2.30405 3.11636
169 1 16.024 -2.89196 3.78658
170 1 15.2679 -3.39241 3.95745
171 1 14.9812 -4.15702 3.44726
172 1 14.3336 -4.85102 3.69512
173 1 13.8978 -5.05504 4.52889
174 1 13.9006 -4.29977 5.02623
175 1 13.3646 -3.55953 4.83915
176 1 13.0844 -3.89415 4.02253
177 1 12.502 -4.58776 3.82333
178 1 12.7247 -5.38758 3.36098
179 1 12.4862 -6.21418 3.74651
180 1 12.5173 -6.54821 4.67838
181 1 12.4691 -7.18916 5.34893
182 1 13.1944 -7.5199 5.86314
183 1 13.145 -8.37472 5.49949
184 1 13.0475 -9.22503 5.01496
185 1 12.4401 -9.07785 4.27394
186 1 11.5529 -8.84912 4.44119
187 1 10.9191 -8.59268 5.12216
188 1 10.1538 -8.38069 5.59472
189 1 9.83701 -8.95596 6.33888
190 1 8.84338 -8.7845 6.367
191 1 8.07193 -8.23227 6.28991
192 1 7.35056 -8.19592 5.66941
193 1 6.68378 -8.66889 5.16188
194 1 5.99945 -9.3364 5.22737
195 1 5.9696 -9.50365 4.29192
196 1 5.24191 -9.91319 3.83236
197 1 5.89714 -9.91703 3.13318
198 1 6.15538 -9.99983 2.2638
199 1 6.8447 -9.61446 1.7791
200 1 6.91161 -8.8108 1.21469
201 1 6.72315 -7.87316 1.00774
202 1 6.40613 -6.98958 1.09506
203 1 6.25746 -6.09898 1.38502
204 1 6.1043 -5.4799 2.06777
205 1 5.63682 -4.98641 2.79042
206 1 5.1572 -4.63034 3.49521
207 1 5.29797 -4.03256 4.30042
208 1 5.18304 -4.59568 5.11001
209 1 5.11912 -5.03603 5.95534
210 1 5.74341 -5.64203 6.21271
211 1 6.51519 -6.01776 6.49421
212 1 6.99695 -6.76649 6.88041
213 1 6.50224 -7.46714 7.247
214 1 6.22058 -8.32873 7.32445
215 1 5.96164 -9.24712 7.47308
216 1 5.89877 -9.8568 8.13824
217 1 6.17127 -10.3936 8.884
218 1 5.19466 -10.4797 9.01772
219 1 5.47255 -11.3787 8.94821
220 1 5.70598 -12.1718 9.36617
221 1 5.60329 -11.8168 10.2535
222 1 5.39042 -11.6211 11.122
223 1 5.426 -11.6725 12.0382
224 1 5.73503 -11.0004 12.6437
225 1 4.91665 -10.8351 12.9738
226 1 4.01095 -11.0898 12.7828
227 1 3.14117 -10.7229 12.7769
228 1 2.64071 -10.4113 13.5529
229 1 2.42976 -10.9622 14.2845
230 1 2.39106 -11.863 14.6297
231 1 2.76325 -12.4605 13.9777
232 1 3.56218 -12.1219 14.1895
233 1 3.79598 -12.2172 15.0889
234 1 4.32704 -12.8167 15.5697
235 1 3.89551 -13.5397 15.9232
236 1 3.78924 -13.7672 16.8225
237 1 3.73741 -14.6396 16.6474
238 1 4.21225 -15.4393 16.6419
239 1 4.70931 -16.1976 16.2918
240 1 5.31422 -16.4492 16.9113
241 1 5.67293 -16.4781 17.7633
242 1 6.41298 -16.5897 18.4044
243 1 6.51318 -16.4788 19.3058
244 1 6.20481 -16.6319 20.2028
245 1 6.89393 -16.6694 20.816
246 1 6.82243 -16.9302 21.6955
247 1 7.71086 -17.1747 21.6451
248 1 8.68282 -17.2599 21.5598
249 1 9.02494 -16.9556 22.3714
250 1 8.99762 -17.242 23.2578
251 1 8.39613 -17.5854 23.9449
252 1 7.61925 -18.0124 24.1611
253 1 6.87068 -18.3633 24.5792
254 1 6.7603 -18.8781 25.396
255 1 6.01627 -19.2722 25.8206
256 1 5.9717 -20.1143 25.4322
ITEM: TIMESTEP
840000
ITEM: NUMBER OF ATOMS
256
ITEM: BOX BOUNDS mm mm mm
-1.2800000000000000e+02 1.2800000000000000e+02
-1.2800000000000000e+02 1.2800000000000000e+02
-1.2800000000000000e+02 1.2800000000000000e+02
ITEM: ATOMS id type x y z
1 1 -32.1371 -3.38948 16.1951
2 1 -32.3634 -2.49251 16.2597
3 1 -33.0072 -1.85823 16.478
4 1 -33.7768 -1.39885 16.759
5 1 -34.1536 -0.531427 16.7193
6 1 -34.3004 0.440829 16.505
7 1 -34.5835 1.30616 16.2615
8 1 -34.4676 1.71192 15.4052
9 1 -34.7804 2.57415 15.3497
10 1 -34.7455 3.48964 15.4349
11 1 -34.2124 4.22232 15.4689
12 1 -34.182 4.96283 14.807
13 1 -34.4834 5.70986 14.333
14 1 -34.8378 6.21623 13.6076
15 1 -35.4473 6.4831 12.9822
16 1 -36.3507 6.63765 12.8988
17 1 -36.7195 6.0963 12.1793
18 1 -36.806 6.73411 11.4619
19 1 -37.3519 7.27965 10.9281
20 1 -38.1005 7.67251 10.4686
21 1 -38.8386 8.2204 10.1729
22 1 -39.7076 8.18551 9.72148
23 1 -40.389 8.36611 9.12064
24 1 -40.7641 9.1462 8.76679
25 1 -41.0853 9.99373 8.9217
26 1 -41.2996 10.3791 9.75539
27 1 -41.2484 10.4855 10.682
28 1 -40.9293 10.4028 11.5678
29 1 -40.9837 9.60103 12.086
30 1 -40.4014 9.11302 12.5953
31 1 -40.1927 9.94451 12.9594
32 1 -39.3986 9.42229 13.0584
33 1 -38.9795 8.94275 12.3814
34 1 -38.3354 8.28916 12.1018
35 1 -37.5925 8.48983 11.5672
36 1 -36.7003 8.53062 11.2929
37 1 -36.1421 8.9324 10.7314
38 1 -35.4321 8.96751 10.1312
39 1 -34.5604 9.07779 9.84799
40 1 -34.0476 9.17087 10.6055
41 1 -33.652 9.51755 11.3421
42 1 -32.8664 9.26081 11.9124
43 1 -31.9481 9.42761 11.9595
44 1 -31.5136 8.58141 11.9359
45 1 -30.8834 7.90796 11.7018
46 1 -30.6134 7.33343 12.4584
47 1 -30.0192 7.26742 13.1268
48 1 -29.1561 7.51652 13.5433
49 1 -29.1041 7.11349 14.4045
50 1 -28.4282 6.81613 14.9881
51 1 -28.3103 6.89577 15.8907
52 1 -27.4124 7.17269 15.9634
53 1 -26.4974 7.55403 16.1031
54 1 -25.6937 7.08217 16.3088
55 1 -25.1255 6.51492 16.7491
56 1 -24.2068 6.48707 17.0022
57 1 -23.5593 6.12191 17.6184
58 1 -23.0677 5.58845 18.2233
59 1 -23.8462 5.00065 18.2468
60 1 -24.5479 4.75878 18.6843
61 1 -24.8313 4.12547 18.0514
62 1 -24.964 3.50006 17.3665
63 1 -24.2612 3.56372 16.6928
64 1 -23.3205 3.66495 16.7671
65 1 -22.9859 3.93528 17.6694
66 1 -22.5132 3.414 18.2621
67 1 -22.6344 2.65742 18.8141
68 1 -22.9425 1.81332 18.4416
69 1 -23.101 2.47121 17.7697
70 1 -22.5291 2.45101 17.0162
71 1 -21.8937 2.94818 16.446
72 1 -21.0164 3.1395 16.3243
73 1 -20.0924 3.01863 16.2323
74 1 -19.4584 3.31099 16.7855
75 1 -18.6857 2.94877 16.3896
76 1 -18.1691 3.13761 15.623
77 1 -17.7856 3.96785 15.5776
78 1 -18.2377 4.62826 15.0217
79 1 -18.781 4.81378 14.2361
80 1 -18.9145 4.73239 13.2925
81 1 -18.6647 4.26233 12.4978
82 1 -18.4987 3.6994 11.6893
83 1 -18.2225 4.62247 11.5806
84 1 -17.7726 5.26292 12.1404
85 1 -17.3007 6.02041 12.0956
86 1 -16.6323 5.63581 12.5919
87 1 -15.8138 5.94883 12.8576
88 1 -15.0739 6.56768 13.0652
89 1 -14.8894 7.10393 12.3469
90 1 -14.2895 7.81182 12.2876
91 1 -13.3508 7.94389 12.251
92 1 -12.6297 8.53181 12.1374
93 1 -11.9198 9.07217 11.7794
94 1 -12.3115 9.9362 11.8175
95 1 -12.5623 10.2284 11.004
96 1 -12.1868 10.3482 10.1611
97 1 -12.5583 10.7175 9.39043
98 1 -12.1315 10.5514 8.59164
99 1 -12.0925 10.6122 7.67547
100 1 -11.6476 10.2623 6.91158
101 1 -11.2647 11.0663 6.56314
102 1 -11.3582 11.7032 5.84724
103 1 -10.5079 11.9459 6.17525
104 1 -9.78278 11.8286 6.69472
105 1 -9.87166 11.1388 7.3294
106 1 -9.51735 10.2887 7.5746
107 1 -8.76073 10.7967 7.25331
108 1 -7.95803 11.251 7.17616
109 1 -7.706 11.8844 7.92481
110 1 -7.08219 11.287 8.28872
111 1 -6.39147 11.5002 8.83676
112 1 -5.66633 11.2091 9.35656
113 1 -5.22736 11.08 10.2002
114 1 -4.45146 11.0837 10.6764
115 1 -3.8878 11.8927 10.7538
116 1 -3.7441 12.1828 9.83309
117 1 -3.33971 12.5134 9.02893
118 1 -3.3249 12.4009 8.05148
119 1 -3.2026 12.59 7.13458
120 1 -4.02901 12.6206 6.6285
121 1 -4.36042 12.6127 5.77362
122 1 -4.38346 12.4079 4.89148
123 1 -4.4742 11.8198 4.17815
124 1 -4.11677 11.1717 3.55074
125 1 -3.78728 10.4287 3.06944
126 1 -3.1926 10.2745 2.40046
127 1 -2.3272 9.89629 2.39099
128 1 -1.93398 9.21117 1.83454
129 1 -1.11144 9.60879 1.99475
130 1 -0.526553 10.0886 1.46219
131 1 0.0205284 9.37965 1.62844
132 1 0.727812 9.52994 2.26206
133 1 1.50152 9.65672 2.81454
134 1 2.12651 9.00194 3.02355
135 1 2.41308 8.0797 3.04324
136 1 1.98695 7.26536 2.96077
137 1 1.90995 6.36368 3.31425
138 1 1.84714 5.54116 3.77385
139 1 2.2141 4.69102 3.72549
140 1 3.00108 4.10883 3.82279
141 1 3.28125 3.54874 4.52381
142 1 3.65443 2.65455 4.63453
143 1 3.62541 1.72683 4.34457
144 1 4.35851 1.13956 4.144
145 1 4.37976 0.986009 3.20934
146 1 5.02077 0.576239 2.50645
147 1 5.77181 0.511358 3.17083
148 1 6.13054 1.28305 2.73083
149 1 6.66762 2.02744 2.50227
150 1 7.57616 2.18723 2.28038
151 1 7.99794 2.9205 2.72973
152 1 8.31497 3.0822 3.63483
153 1 7.92809 2.50093 4.25769
154 1 8.59586 1.95331 4.51136
155 1 8.28589 1.22975 5.0156
156 1 9.12206 0.984837 5.42221
157 1 9.50161 0.265422 4.98387
158 1 10.1502 -0.352278 4.81364
159 1 11.0887 -0.631347 4.81675
160 1 10.6384 -1.42119 5.02393
161 1 10.6206 -2.2184 5.55129
162 1 10.806 -3.10928 5.80867
163 1 11.3295 -3.74664 6.33461
164 1 11.4161 -4.36734 7.08708
165 1 11.696 -5.09036 7.60661
166 1 11.8816 -5.80133 8.18875
167 1 12.2443 -6.37769 8.78654
168 1 12.7289 -7.01143 9.28936
169 1 11.9986 -6.99412 9.87546
170 1 11.3764 -6.42774 10.4483
171 1 11.1306 -6.56064 11.4035
172 1 10.1518 -6.75035 11.448
173 1 9.46048 -6.08814 11.3509
174 1 8.66748 -5.61768 11.2846
175 1 8.40698 -4.84962 10.7422
176 1 9.30015 -4.6402 10.5543
177 1 10.2036 -4.78998 10.6197
178 1 10.2894 -5.48824 10.0387
179 1 10.2735 -6.4037 10.063
180 1 9.5806 -6.13839 9.54771
181 1 9.37505 -5.91204 8.64591
182 1 9.08321 -5.80982 7.78566
183 1 9.66632 -5.25446 7.40492
184 1 10.5842 -4.95123 7.20222
185 1 10.8593 -5.26966 6.40769
186 1 10.6292 -5.54347 5.53376
187 1 10.9251 -6.42039 5.22854
188 1 10.8936 -7.05865 4.55566
189 1 10.3011 -7.44755 4.01166
190 1 9.92487 -7.18192 3.18616