ITEM: TIMESTEP
540000
ITEM: NUMBER OF ATOMS
256
ITEM: BOX BOUNDS mm mm mm
-1.2800000000000000e+02 1.2800000000000000e+02
-1.2800000000000000e+02 1.2800000000000000e+02
-1.2800000000000000e+02 1.2800000000000000e+02
ITEM: ATOMS id type x y z
1 1 -29.0599 10.4741 1.40123
2 1 -29.7163 10.5016 2.05146
3 1 -30.5183 11.0039 1.81913
4 1 -30.7532 11.7065 2.46252
5 1 -31.6424 11.7556 2.66814
6 1 -32.5231 11.2855 2.58602
7 1 -32.8199 10.6745 1.95729
8 1 -33.8055 10.9138 2.05553
9 1 -34.454 11.0329 2.73046
10 1 -35.199 10.7433 3.18198
11 1 -35.6773 11.5293 3.56421
12 1 -36.3906 11.1663 4.01045
13 1 -36.1765 10.351 3.61917
14 1 -36.1965 9.39259 3.81759
15 1 -36.2017 9.55083 4.75177
16 1 -35.6729 9.17853 5.42575
17 1 -34.8889 9.33307 4.96593
18 1 -34.3227 8.91654 5.60472
19 1 -33.9829 8.01004 5.56629
20 1 -34.656 7.45416 5.32404
21 1 -34.0997 7.61062 4.587
22 1 -33.5202 8.25764 4.28428
23 1 -32.6307 8.54642 4.15025
24 1 -32.6077 7.54772 4.20586
25 1 -32.3557 6.72544 4.42089
26 1 -31.6747 6.30079 3.98782
27 1 -32.1441 6.15729 3.15137
28 1 -32.6704 6.58335 2.48088
29 1 -31.8548 7.00551 2.52575
30 1 -31.3658 7.69296 2.15546
31 1 -30.8298 7.13874 2.68832
32 1 -30.8554 6.68902 1.81638
33 1 -30.4073 6.01757 1.34014
34 1 -29.7347 5.8502 1.94535
35 1 -28.8418 5.64218 1.63762
36 1 -28.278 5.00632 2.05439
37 1 -28.3416 4.17953 2.482
38 1 -28.6675 4.32165 3.37016
39 1 -28.7376 3.72088 4.16285
40 1 -29.304 4.1451 4.77092
41 1 -29.6258 3.79152 5.56189
42 1 -29.5577 4.67376 5.83381
43 1 -29.7075 5.2528 6.59156
44 1 -28.8212 5.00288 6.93099
45 1 -27.9536 4.81411 6.65217
46 1 -27.5933 4.21664 6.01985
47 1 -28.5232 4.24665 5.88883
48 1 -29.0172 3.90019 6.63252
49 1 -29.322 3.02742 6.44652
50 1 -29.1328 2.4173 5.72974
51 1 -28.1695 2.15883 5.84234
52 1 -27.4452 2.08184 6.48038
53 1 -27.1557 1.3466 6.98144
54 1 -27.5232 2.10815 7.46867
55 1 -27.6749 2.62624 8.24242
56 1 -27.2927 3.43085 8.37794
57 1 -27.609 3.27965 9.23438
58 1 -27.2 3.62063 9.98515
59 1 -27.4473 4.18121 10.6987
60 1 -26.8546 4.44126 11.4474
61 1 -26.5324 3.62964 11.8262
62 1 -26.1527 2.93845 12.3906
63 1 -25.2631 2.67927 12.0621
64 1 -25.1297 3.4792 11.6446
65 1 -24.4173 3.9027 12.0469
66 1 -23.8489 3.55313 12.7115
67 1 -23.5202 3.17225 11.9002
68 1 -22.8027 2.71668 11.3504
69 1 -22.5841 3.58456 11.6896
70 1 -21.6359 3.35907 11.4544
71 1 -21.2311 3.17216 10.6368
72 1 -20.3902 2.75737 10.5422
73 1 -19.9739 2.08772 10.9661
74 1 -19.4443 1.61981 11.5354
75 1 -18.7008 1.51805 12.11
76 1 -17.9976 2.14955 12.0171
77 1 -17.5178 2.18009 12.9046
78 1 -17.6265 1.29691 13.2235
79 1 -17.988 0.394576 13.3939
80 1 -17.3638 -0.0668273 12.8962
81 1 -17.5324 -0.901677 12.4977
82 1 -17.9257 -1.76162 12.3151
83 1 -17.7594 -2.57573 12.8146
84 1 -17.5731 -3.46095 12.5933
85 1 -17.5103 -3.85039 11.7633
86 1 -17.0098 -4.41474 11.2329
87 1 -16.7592 -4.78364 10.4035
88 1 -17.5018 -4.44028 9.84661
89 1 -18.1544 -3.97227 9.34478
90 1 -18.9989 -3.905 9.80756
91 1 -19.7368 -4.3774 10.1436
92 1 -19.0531 -4.9653 9.82973
93 1 -18.952 -5.28104 8.95631
94 1 -18.2404 -5.92665 8.83404
95 1 -17.3939 -6.07441 9.24438
96 1 -17.3709 -5.19837 8.88934
97 1 -16.4018 -5.10246 9.03535
98 1 -15.7381 -5.6589 8.75837
99 1 -14.9562 -5.59503 8.20895
100 1 -14.1771 -5.2729 7.73369
101 1 -13.8658 -6.18372 7.40295
102 1 -13.3593 -6.74744 6.76162
103 1 -12.4592 -6.61287 7.09052
104 1 -11.662 -6.66776 7.56577
105 1 -10.9888 -6.09707 7.24388
106 1 -10.2145 -5.83807 6.7344
107 1 -10.599 -5.60978 5.9227
108 1 -11.0371 -6.43894 5.61094
109 1 -10.8184 -6.33898 4.71315
110 1 -10.4104 -6.62554 3.92087
111 1 -11.206 -6.21035 3.58213
112 1 -11.7184 -6.04589 2.82577
113 1 -12.4768 -5.72991 3.31487
114 1 -12.9953 -5.04899 3.7854
115 1 -12.4388 -4.53765 4.31582
116 1 -11.701 -4.39814 4.89259
117 1 -11.6535 -3.49495 4.74802
118 1 -10.9259 -2.92198 5.00869
119 1 -10.0587 -2.83478 5.3726
120 1 -9.12136 -3.03788 5.35901
121 1 -8.20416 -2.86257 5.50892
122 1 -7.29831 -2.76662 5.25164
123 1 -7.3158 -1.8623 5.62388
124 1 -6.64568 -1.91804 6.25305
125 1 -5.96991 -1.94502 6.9775
126 1 -5.95156 -2.90016 7.15946
127 1 -6.15932 -3.64645 7.6424
128 1 -6.06254 -4.36533 7.00131
129 1 -5.24552 -4.75591 7.32676
130 1 -5.07241 -4.02562 6.69026
131 1 -4.53354 -3.8568 5.93008
132 1 -3.81523 -3.90398 6.5466
133 1 -3.15205 -4.48789 6.79734
134 1 -3.09432 -3.8951 7.51725
135 1 -2.19151 -3.71527 7.48217
136 1 -1.40581 -3.4162 7.86216
137 1 -0.756182 -3.49138 7.18008
138 1 0.171779 -3.51182 7.03286
139 1 0.628074 -4.0357 6.41017
140 1 1.34883 -3.89996 5.79562
141 1 1.24478 -4.2788 4.91911
142 1 1.38524 -5.02988 4.29571
143 1 0.877109 -5.48298 4.97404
144 1 -0.0140467 -5.14698 5.05399
145 1 0.283407 -5.28189 4.14664
146 1 -0.441537 -5.53562 3.62635
147 1 0.0953149 -6.29659 3.9354
148 1 0.57801 -5.91164 3.21273
149 1 1.14645 -5.17031 2.97998
150 1 1.88388 -4.99879 2.3091
151 1 2.74334 -4.71799 1.98668
152 1 3.30539 -3.90623 2.0371
153 1 3.76575 -3.09389 2.0126
154 1 3.71489 -2.49497 2.70795
155 1 4.58338 -2.22885 2.91761
156 1 5.31443 -1.8623 3.47464
157 1 5.37132 -1.88705 4.45242
158 1 5.84304 -1.09391 4.68617
159 1 5.77676 -0.231512 5.02796
160 1 5.65731 0.661836 5.34755
161 1 5.32894 1.15024 4.60503
162 1 4.59103 1.27591 4.01025
163 1 4.08306 1.7493 3.39882
164 1 3.58202 1.15358 2.84586
165 1 3.42591 1.55093 2.05425
166 1 2.81405 1.18095 1.35994
167 1 2.11389 1.59321 0.957992
168 1 1.23662 1.60705 1.25958
169 1 1.01123 2.31223 1.89956
170 1 1.92731 2.37095 2.13635
171 1 1.68004 1.77169 2.77031
172 1 1.44138 2.54413 3.18116
173 1 1.63108 2.14688 3.99101
174 1 1.51052 2.48396 4.8905
175 1 2.07876 2.6311 5.59348
176 1 2.50553 1.80721 5.51851
177 1 2.86193 1.5437 4.72523
178 1 3.13375 2.24115 4.16904
179 1 3.68208 3.05217 4.26172
180 1 4.02407 2.49664 4.95801
181 1 4.18682 2.86356 5.77272
182 1 3.60567 2.29635 6.27916
183 1 3.56508 1.40449 6.22714
184 1 3.07785 0.857774 6.83881
185 1 3.39158 0.979863 7.70733
186 1 4.20683 1.38777 8.10188
187 1 4.33161 1.63203 8.98836
188 1 5.20415 1.41986 9.27685
189 1 5.91374 2.09978 9.42271
190 1 6.41876 1.48749 9.91963
191 1 7.20492 1.1967 10.3703
192 1 7.17881 0.70295 9.60581
193 1 8.06483 0.504752 9.49103
194 1 8.13106 -0.11806 8.78336
195 1 8.97089 -0.454811 9.04486
196 1 9.52878 -0.0831396 8.31159
197 1 9.61951 -1.0367 8.37694
198 1 10.0346 -1.0309 9.22654
199 1 10.8483 -1.5442 9.17021
200 1 10.7694 -1.78591 8.23379
201 1 11.5527 -2.20994 8.29121
202 1 11.6736 -2.23563 7.29645
203 1 12.1019 -2.55877 6.51249
204 1 11.3065 -2.82646 6.06181
205 1 10.6059 -2.22832 6.20213
206 1 9.73732 -2.33626 6.59657
207 1 9.35396 -3.21571 6.30976
208 1 8.56772 -3.76267 6.13573
209 1 8.54772 -4.50116 5.4873
210 1 9.00357 -4.42531 4.6946
211 1 9.71743 -3.91106 4.329
212 1 9.7143 -3.74968 3.40679
213 1 9.93506 -3.83672 2.4872
214 1 10.8096 -3.66659 2.77228
215 1 11.0756 -2.69218 2.82564
216 1 11.1646 -2.44339 1.96229
217 1 11.2863 -3.18364 1.44774
218 1 11.9067 -2.9155 0.841957
219 1 12.7429 -3.306 0.990516
220 1 13.0954 -2.40045 0.860424
221 1 13.7037 -1.70745 0.639924
222 1 14.1151 -1.2284 1.37415
223 1 14.2809 -0.882875 2.32044
224 1 14.3186 -0.842516 3.21985
225 1 14.8114 -1.50533 3.76099
226 1 15.1875 -1.06609 4.46571
227 1 16.0566 -0.834959 4.68235
228 1 15.9399 -0.0479719 5.18777
229 1 16.6467 0.619903 5.06536
230 1 17.0162 0.24689 4.2996
231 1 17.2139 -0.0228972 3.41773
232 1 17.242 0.897584 3.16172
233 1 17.2025 1.82365 3.08418
234 1 17.2021 2.45547 2.42783
235 1 17.0192 3.36324 2.15115
236 1 17.3468 3.52094 1.30623
237 1 17.682 4.39349 1.1981
238 1 17.2175 4.59042 0.414864
239 1 16.6115 5.30978 0.200833
240 1 15.7581 5.64424 -0.0203635
241 1 15.2202 6.37592 -0.176153
242 1 15.279 7.26189 0.0207734
243 1 15.7455 6.72828 0.65064
244 1 14.8201 6.62828 0.724009
245 1 14.709 5.84454 1.28064
246 1 13.9044 5.45299 1.57304
247 1 14.0276 4.51905 1.17615
248 1 14.0975 3.94958 0.366381
249 1 14.0613 2.99051 0.363445
250 1 14.6968 3.34993 -0.140561
251 1 15.0115 2.66956 -0.730879
252 1 14.2102 2.55047 -1.22348
253 1 13.8665 2.85803 -2.01456
254 1 14.4738 3.49919 -2.2443
255 1 15.3357 3.18683 -2.1386
256 1 15.8202 2.62864 -2.7929
