ITEM: TIMESTEP
1800000
ITEM: NUMBER OF ATOMS
256
ITEM: BOX BOUNDS mm mm mm
-1.2800000000000000e+02 1.2800000000000000e+02
-1.2800000000000000e+02 1.2800000000000000e+02
-1.2800000000000000e+02 1.2800000000000000e+02
ITEM: ATOMS id type x y z
1 1 -44.2618 12.5816 22.7668
2 1 -43.8838 13.4475 22.9054
3 1 -43.2933 14.0799 23.0848
4 1 -42.785 13.3418 22.6745
5 1 -42.9864 12.4983 22.9704
6 1 -42.8412 11.6568 23.3261
7 1 -42.9315 10.7658 23.0775
8 1 -42.859 10.3887 23.9157
9 1 -42.7527 9.96591 24.6783
10 1 -41.9308 9.50756 24.7337
11 1 -41.0206 9.16786 24.7819
12 1 -40.8675 8.33624 25.2385
13 1 -41.4516 8.07279 24.5301
14 1 -41.3007 8.20695 23.6258
15 1 -40.6614 7.76694 23.1278
16 1 -40.3355 7.35028 22.3351
17 1 -39.5066 7.41473 21.98
18 1 -38.6056 7.43944 21.9118
19 1 -38.3161 6.63313 21.5
20 1 -37.519 7.02384 21.2777
21 1 -37.5792 6.44222 20.5414
22 1 -38.0735 6.19864 19.8035
23 1 -38.4467 5.41413 19.5072
24 1 -38.4486 5.66887 18.5689
25 1 -38.2467 5.29447 17.6846
26 1 -37.3553 5.02587 17.6405
27 1 -36.7859 5.21747 16.8591
28 1 -35.9723 4.92319 17.267
29 1 -35.0968 4.84942 17.0872
30 1 -34.3924 5.11239 17.6727
31 1 -34.0517 5.63664 18.3805
32 1 -33.8913 6.39429 18.899
33 1 -33.4832 7.19073 19.3479
34 1 -33.3098 7.2607 20.2129
35 1 -33.0261 7.66381 21.0302
36 1 -32.1262 7.75448 21.2456
37 1 -31.3265 7.22981 21.2264
38 1 -30.9347 6.83723 20.5071
39 1 -30.1849 6.94866 19.984
40 1 -29.6128 7.25101 19.2748
41 1 -28.9873 6.95709 18.6008
42 1 -28.7135 7.62846 17.9621
43 1 -28.2414 7.13674 17.3
44 1 -27.3635 6.94196 17.5328
45 1 -27.5836 6.20763 16.9946
46 1 -26.8223 5.88145 16.6392
47 1 -26.201 5.27242 16.3147
48 1 -26.4009 4.67506 15.5968
49 1 -26.8267 4.50345 14.7738
50 1 -27.1808 4.15269 13.9521
51 1 -27.4632 4.14342 13.0214
52 1 -28.314 4.38115 12.6262
53 1 -29.1417 3.92562 12.6239
54 1 -28.6429 3.11152 12.3641
55 1 -28.9439 2.22749 12.3821
56 1 -28.5581 1.46832 12.7272
57 1 -27.7342 1.49308 13.1594
58 1 -26.9707 1.60106 13.7766
59 1 -26.0839 1.77935 13.5682
60 1 -25.2849 2.41459 13.6745
61 1 -24.4882 2.80011 13.4055
62 1 -24.421 3.60249 13.9037
63 1 -24.4634 4.21235 14.6316
64 1 -24.43 4.23851 15.5905
65 1 -23.4942 4.32629 15.5331
66 1 -23.0124 4.30424 16.3029
67 1 -22.5069 3.8055 16.8976
68 1 -22.7184 4.15084 17.7088
69 1 -21.9311 3.9347 18.0877
70 1 -21.6144 3.37439 18.7361
71 1 -22.1434 2.68764 19.2701
72 1 -22.267 2.0536 18.5437
73 1 -21.4756 1.72423 18.1826
74 1 -22.052 1.03259 18.2568
75 1 -22.3339 0.274356 17.7996
76 1 -22.9827 -0.246209 18.1713
77 1 -22.8916 -1.18252 18.1914
78 1 -22.1141 -1.65016 18.0701
79 1 -21.328 -1.42767 17.5589
80 1 -20.5779 -1.06793 18.1163
81 1 -20.5807 -0.248194 17.7127
82 1 -19.6904 -0.0418798 17.4865
83 1 -19.2418 0.310517 16.6306
84 1 -18.9265 0.740837 15.819
85 1 -18.0831 0.480054 15.5539
86 1 -17.6041 -0.286887 15.5626
87 1 -17.6867 -1.2044 15.5859
88 1 -17.5166 -2.0468 15.1445
89 1 -17.5221 -2.63475 15.8621
90 1 -17.7159 -3.50092 16.3322
91 1 -17.5324 -4.42801 16.3918
92 1 -17.4998 -4.62236 17.3191
93 1 -16.7268 -4.96834 16.9591
94 1 -16.2048 -5.73528 16.7193
95 1 -15.8923 -5.34911 15.913
96 1 -16.1319 -5.06974 14.9752
97 1 -16.7648 -5.53296 14.5198
98 1 -17.1511 -5.43754 13.6949
99 1 -16.4574 -4.81306 13.7213
100 1 -16.114 -3.98678 13.526
101 1 -16.5129 -3.99672 12.6025
102 1 -17.2225 -3.98547 11.9944
103 1 -16.6617 -4.13462 11.2322
104 1 -16.1103 -4.83286 11.0202
105 1 -15.4801 -5.45362 11.4485
106 1 -14.5977 -5.28259 11.157
107 1 -13.7764 -5.6755 10.9191
108 1 -14.0412 -5.78571 10.0187
109 1 -14.1946 -5.4565 9.1518
110 1 -14.279 -5.18986 8.27558
111 1 -14.0886 -4.33601 8.60527
112 1 -13.5453 -3.52672 8.52419
113 1 -13.0722 -3.53672 9.36177
114 1 -12.5149 -2.78001 9.50316
115 1 -12.2062 -2.38229 8.7276
116 1 -12.6637 -1.75295 8.25773
117 1 -13.3845 -1.63538 8.91635
118 1 -13.655 -1.95134 8.09905
119 1 -14.4653 -2.3754 8.07155
120 1 -14.2561 -3.07679 7.45266
121 1 -14.1932 -3.90481 6.97007
122 1 -14.0428 -4.05877 6.0439
123 1 -14.6862 -3.62726 5.38399
124 1 -15.5865 -3.54604 5.37487
125 1 -16.0187 -3.04675 6.00158
126 1 -16.7556 -2.49363 6.05498
127 1 -16.5146 -1.61302 6.25258
128 1 -16.3959 -1.0006 6.95114
129 1 -15.4862 -0.751802 6.74378
130 1 -15.4174 -0.907134 5.84265
131 1 -15.1439 -0.328792 5.12106
132 1 -14.5378 0.180512 5.63485
133 1 -13.6495 0.52977 5.53417
134 1 -13.5207 1.38678 5.20226
135 1 -13.5476 2.0071 4.51642
136 1 -13.7511 2.40356 3.67621
137 1 -14.3381 2.41369 2.9102
138 1 -14.2883 2.55484 1.97965
139 1 -13.9538 2.36877 1.06763
140 1 -13.0647 2.53705 0.632458
141 1 -12.6803 3.10642 0.0404134
142 1 -12.1409 2.40368 -0.246943
143 1 -11.8643 1.85653 -0.933128
144 1 -11.8832 1.25831 -0.238701
145 1 -11.4441 0.538889 0.206845
146 1 -12.0882 0.518767 0.970664
147 1 -11.4081 0.161707 1.47273
148 1 -10.8718 -0.46885 2.0016
149 1 -11.3425 -0.672554 2.79308
150 1 -11.988 -0.303312 3.31679
151 1 -12.1362 0.624252 2.90664
152 1 -12.6906 1.35079 3.23278
153 1 -12.058 1.58572 3.93533
154 1 -11.5895 2.38872 3.71308
155 1 -12.1017 2.57487 4.45542
156 1 -12.1318 2.30959 5.34941
157 1 -12.1906 1.95687 6.23861
158 1 -11.3195 1.9856 5.77869
159 1 -11.3266 1.20698 5.20177
160 1 -10.7671 0.942192 5.90804
161 1 -9.8824 1.03388 6.22088
162 1 -9.20525 1.33833 6.87792
163 1 -8.86215 0.790163 6.13594
164 1 -8.92257 1.44086 5.47114
165 1 -8.44583 2.20682 5.29037
166 1 -8.19484 3.1055 5.37727
167 1 -7.44365 3.69846 5.25193
168 1 -7.04622 4.4453 4.93965
169 1 -6.0858 4.35159 4.93771
170 1 -5.38058 4.72267 4.46008
171 1 -4.45038 4.88363 4.46301
172 1 -4.04878 5.66711 4.04074
173 1 -3.60883 5.62216 4.9146
174 1 -3.98932 6.25448 5.68271
175 1 -3.40983 6.87313 5.9773
176 1 -2.83352 7.62811 6.01346
177 1 -2.14361 7.68066 5.3356
178 1 -2.50073 7.87049 4.445
179 1 -2.63594 8.27934 3.59014
180 1 -3.30498 8.81922 3.13944
181 1 -3.40805 9.29897 3.9902
182 1 -3.62453 9.25507 4.91191
183 1 -4.50889 8.95182 5.17973
184 1 -4.53992 8.53289 6.0877
185 1 -5.19959 7.97966 6.50927
186 1 -5.8225 7.28212 6.30391
187 1 -6.01203 6.86101 7.07647
188 1 -6.77352 6.88439 7.75891
189 1 -7.32478 7.38079 8.29718
190 1 -6.51419 7.79696 8.44271
191 1 -5.96078 8.17006 7.80742
192 1 -5.21794 8.34197 8.3489
193 1 -5.0256 9.01028 8.9755
194 1 -4.79176 9.82197 9.33017
195 1 -3.85125 10.1565 9.31335
196 1 -3.89801 10.8726 9.94606
197 1 -4.20434 10.9715 10.8131
198 1 -4.00808 10.1052 11.1436
199 1 -4.18767 9.60076 11.9645
200 1 -4.74468 8.81912 11.8546
201 1 -5.1726 8.81223 11.0285
202 1 -5.35935 7.94154 11.2302
203 1 -4.48348 7.64912 11.3944
204 1 -4.47709 7.12379 12.1676
205 1 -3.93495 6.56535 12.6892
206 1 -3.16016 6.13021 12.3941
207 1 -3.14255 5.54375 13.1388
208 1 -2.59297 4.79469 13.019
209 1 -2.39863 3.93817 13.3865
210 1 -1.44777 3.72298 13.4087
211 1 -0.941527 4.04684 12.7166
212 1 -0.0364227 3.76591 12.7022
213 1 0.118202 4.00281 11.7956
214 1 -0.700263 4.28035 11.375
215 1 -0.389767 4.69246 10.5913
216 1 -0.206513 5.08998 9.76802
217 1 -1.13828 5.35334 9.70042
218 1 -1.97384 5.5728 9.35016
219 1 -2.1308 6.36651 8.89231
220 1 -2.33803 7.20894 9.1806
221 1 -2.54145 8.15269 9.18997
222 1 -2.06584 8.62667 9.80998
223 1 -1.72321 9.09378 10.6112
224 1 -1.23591 9.62701 11.186
225 1 -0.48579 9.54648 10.6295
226 1 -0.435954 9.063 9.81586
227 1 -0.91299 8.82743 8.99733
228 1 -0.717657 8.7814 8.12968
229 1 -1.42439 8.3413 7.72569
230 1 -1.87927 8.7546 6.976
231 1 -2.48419 8.66587 7.78586
232 1 -2.41412 7.73005 7.85134
233 1 -2.24839 7.30578 7.09011
234 1 -2.11334 6.39053 6.88029
235 1 -1.71525 5.62181 6.62161
236 1 -0.943382 5.47034 6.06527
237 1 -0.58278 5.25424 5.23767
238 1 -0.0993403 5.81027 4.59178
239 1 0.341497 4.93378 4.7222
240 1 0.130853 4.53427 5.56016
241 1 0.0730264 3.99512 4.82857
242 1 -0.432718 3.30962 4.3845
243 1 -0.0424419 2.5261 4.7183
244 1 0.9093 2.50486 4.99652
245 1 0.691638 1.84308 5.59673
246 1 0.292734 1.03668 5.91459
247 1 -0.137211 0.393188 6.49052
248 1 0.150188 -0.119777 7.24353
249 1 -0.128163 -0.84858 7.79734
250 1 -1.0963 -0.923604 7.93388
251 1 -1.63822 -1.53438 8.32544
252 1 -1.14016 -2.25566 8.17275
253 1 -1.26661 -2.38212 7.24112
254 1 -0.902487 -2.07141 6.44063
255 1 -0.55432 -2.21993 5.60754
256 1 -0.90568 -1.49232 5.10062
ITEM: TIMESTEP
1810000
ITEM: NUMBER OF ATOMS
256
ITEM: BOX BOUNDS mm mm mm
-1.2800000000000000e+02 1.2800000000000000e+02
-1.2800000000000000e+02 1.2800000000000000e+02
-1.2800000000000000e+02 1.2800000000000000e+02
ITEM: ATOMS id type x y z
1 1 -36.1052 3.05014 25.0826
2 1 -37.0416 3.27321 24.9697
3 1 -37.3797 3.89329 24.3855
4 1 -37.9611 4.08991 23.6762
5 1 -37.8978 5.00613 23.9555
6 1 -37.6154 5.89481 23.8069
7 1 -37.3717 6.38674 23.004
8 1 -38.0808 6.97176 22.7741
9 1 -38.7961 7.20119 23.3556
10 1 -39.5566 7.02764 23.8922
11 1 -39.9061 6.80683 24.7469
12 1 -39.569 6.68242 25.6918
13 1 -38.8444 6.30717 26.1823
14 1 -38.1559 6.15044 26.7903
15 1 -37.697 6.68388 26.1341
16 1 -37.198 7.02242 25.42
17 1 -36.5617 7.19378 24.7869
18 1 -37.3742 7.25529 24.2444
19 1 -36.7651 7.83725 23.8473
20 1 -36.0703 8.01941 23.2009
21 1 -35.6178 7.42292 22.5771
22 1 -35.1955 6.95708 21.8535
23 1 -35.4276 6.32363 21.1712
24 1 -36.1345 5.91057 20.7356
25 1 -36.3897 5.00155 20.6251
26 1 -37.0116 4.25464 20.6714
27 1 -37.2194 3.72146 19.9628
28 1 -36.4933 3.93427 19.386
29 1 -36.4487 4.26873 18.4984
30 1 -35.9983 4.0223 17.732
31 1 -35.3086 4.64226 17.9366
32 1 -34.9685 4.93939 18.7408
33 1 -34.2588 5.23459 18.24
34 1 -33.6407 5.79694 17.6942
35 1 -33.1449 5.70957 16.9178
36 1 -32.5897 5.16185 16.4282
37 1 -31.9618 4.82079 15.8056
38 1 -31.8649 4.73323 14.8882
39 1 -31.5822 4.04418 14.3505
40 1 -30.9667 4.21237 13.7277
41 1 -30.3996 4.90081 13.4643
42 1 -29.6905 5.52609 13.6212
43 1 -28.7962 5.23035 13.7549
44 1 -27.9743 5.06642 13.2903
45 1 -27.9227 4.27609 13.7346
46 1 -27.5287 4.36927 14.6148
47 1 -26.7015 4.70241 14.4172
48 1 -26.0226 5.29942 14.4172
49 1 -25.6477 4.90131 13.6467
50 1 -26.099 4.20316 13.1016
51 1 -25.5282 4.6175 12.5335
52 1 -24.6924 4.67793 12.146
53 1 -24.8006 5.42913 11.5613
54 1 -24.5702 6.24023 11.0202
55 1 -24.3248 6.45676 10.1438
56 1 -24.692 6.38623 9.29187
57 1 -25.3036 6.12637 9.97582
58 1 -25.8349 5.9148 10.6749
59 1 -25.9369 5.33193 11.4329
60 1 -26.3258 4.57364 11.0894
61 1 -26.4908 4.13545 11.8973
62 1 -26.7553 3.47792 12.5143
63 1 -26.6159 2.61188 12.8169
64 1 -26.1308 2.01617 12.3599
65 1 -25.442 1.3858 12.5983
66 1 -24.8567 1.36441 13.3815
67 1 -25.3503 1.45688 14.1741
68 1 -25.4734 1.68882 15.0343
69 1 -24.9237 0.951 14.9441
70 1 -24.6599 0.798497 15.794
71 1 -23.79 0.550799 15.6149
72 1 -23.1479 0.870206 16.2495
73 1 -22.4717 0.245583 16.0281
74 1 -21.6668 0.347198 15.6333
75 1 -20.9335 -0.180875 15.2678
76 1 -20.3525 -0.84808 14.9219
77 1 -19.5928 -0.321186 15.0037
78 1 -19.3663 -1.32156 15.022
79 1 -19.201 -1.62399 15.9133
80 1 -19.4839 -2.34716 16.4909
81 1 -19.3966 -3.11303 17.0085
82 1 -18.9701 -3.74811 16.4431
83 1 -18.2466 -3.8253 15.7906
84 1 -17.3475 -3.79265 16.0022
85 1 -16.4734 -4.01227 15.9871
86 1 -16.7196 -3.75242 16.8715
87 1 -16.345 -2.87164 16.8344
88 1 -15.5799 -3.06482 17.3641
89 1 -15.0708 -2.8355 16.6833
90 1 -14.3914 -2.80144 16.1224
91 1 -14.4524 -2.33677 15.3286
92 1 -14.5324 -1.62716 14.7431
93 1 -14.0909 -1.22107 13.9654
94 1 -14.2961 -0.627991 13.1855
95 1 -14.2927 0.222327 12.7562
96 1 -14.5607 0.108256 11.896
97 1 -13.6597 -0.175205 11.8992
98 1 -13.5589 -1.06392 12.1946
99 1 -12.8415 -1.6444 12.2417
100 1 -12.0429 -2.12987 12.3952
101 1 -12.2014 -3.07517 12.34
102 1 -11.4389 -3.57162 12.2148
103 1 -12.2936 -3.9602 11.9638
104 1 -13.1699 -3.88859 11.6917
105 1 -13.7619 -4.52487 11.3572
106 1 -14.261 -4.71707 10.5663
107 1 -14.2707 -5.63567 10.2983
108 1 -13.8611 -5.58132 9.45325
109 1 -13.5049 -6.01266 8.71144
110 1 -13.4315 -6.14961 7.74923
111 1 -14.3157 -6.47415 7.61181
112 1 -15.2668 -6.37687 7.49308
113 1 -15.6194 -6.08498 6.58838
114 1 -14.965 -6.52196 6.04527
115 1 -14.3861 -6.9973 5.48138
116 1 -13.8696 -7.50745 6.0142
117 1 -13.7044 -8.36635 5.79815
118 1 -13.3577 -8.62065 4.94033
119 1 -13.1663 -8.50655 3.98458
120 1 -13.0924 -8.2113 3.11885
121 1 -13.1461 -7.24017 3.13737
122 1 -12.4862 -6.53846 3.06763
123 1 -12.3676 -6.52201 2.17721
124 1 -11.9066 -6.41107 1.3606
125 1 -11.8329 -5.78032 0.692692
126 1 -10.9723 -5.9412 0.318784
127 1 -10.7549 -5.0427 0.370469
128 1 -10.2365 -4.28696 0.583867
129 1 -10.4746 -3.64086 -0.00263632
130 1 -11.3292 -3.23225 0.146661
131 1 -11.2019 -3.28619 1.04707
132 1 -11.3904 -2.38453 0.856024
133 1 -11.3194 -1.65988 1.4243
134 1 -12.0751 -1.25977 1.95584
135 1 -11.8148 -0.614098 1.29549
136 1 -12.0224 -0.266149 0.377535
137 1 -12.4828 0.551117 0.557704
138 1 -12.6778 0.634843 1.46776
139 1 -12.3647 0.59681 2.33596
140 1 -13.0095 0.359724 3.00233
141 1 -12.6868 -0.382678 3.47695
142 1 -11.8144 -0.0312898 3.38606
143 1 -10.9776 0.363081 3.1527
144 1 -10.4165 0.743954 3.78994
145 1 -10.1676 1.1745 4.62423
146 1 -9.64937 1.65995 4.04061
147 1 -9.38875 2.26548 4.6915
148 1 -9.94118 1.99872 5.39953
149 1 -9.42883 1.65375 6.09729
150 1 -9.95677 2.03858 6.7892
151 1 -10.4016 2.78963 7.0203
152 1 -9.99944 3.25114 7.7125
153 1 -9.3755 3.55349 8.37892
154 1 -8.76775 4.11307 8.79623
155 1 -7.88222 3.88744 8.52471
156 1 -7.66183 3.40183 7.79159
157 1 -7.17151 4.10692 7.35855
158 1 -6.89302 4.91356 7.00369
159 1 -6.90939 5.77918 7.39993
160 1 -7.77321 6.14498 7.30737
161 1 -8.44219 6.32787 6.64137
162 1 -8.75625 5.70306 6.04318
163 1 -8.02814 5.19672 5.66704
164 1 -7.57788 5.33533 4.80761
165 1 -7.6252 5.4732 3.88082
166 1 -7.35115 5.82575 3.02573
167 1 -6.56132 5.58016 2.50198
168 1 -5.92271 5.99814 1.99261
169 1 -5.82709 5.86703 0.992044
170 1 -4.9666 5.92664 1.26985
171 1 -4.34821 6.65639 1.37079
172 1 -3.52388 7.10448 1.39845
173 1 -3.21662 7.07109 2.35836
174 1 -3.90736 7.75485 2.31744
175 1 -3.62148 8.06101 3.15841
176 1 -4.21743 7.91414 3.85113
177 1 -4.65007 8.07201 4.65513
178 1 -4.28106 7.26762 5.04545
179 1 -4.24117 6.37023 5.51586
180 1 -4.43604 5.94484 6.30827
181 1 -4.72765 6.63346 6.88361
182 1 -5.16229 6.55121 7.77988
183 1 -4.87375 6.81033 8.64776
184 1 -5.29926 7.30814 9.32887
185 1 -4.59216 7.70802 9.71369
186 1 -3.90004 7.4193 10.2062
187 1 -3.63105 7.33589 11.1019
188 1 -3.96505 8.19972 11.0104
189 1 -4.86007 8.30105 11.1894
190 1 -4.63624 8.92391 11.8376
191 1 -4.82147 9.34035 12.6845
192 1 -4.61854 10.0813 13.2627
193 1 -5.00961 10.8666 12.954
194 1 -4.30205 11.3475 13.2625
195 1 -3.33756 11.3265 13.2577
196 1 -2.51064 11.7244 13.4027
197 1 -1.7084 12.116 13.6352
198 1 -1.83366 13.0164 13.5486
199 1 -1.12344 13.4235 14.1026
200 1 -0.80512 12.5565 14.4102
201 1 -0.446111 12.1793 15.2281
202 1 -0.486751 12.0086 16.1688
203 1 -0.454047 12.9623 15.942
204 1 -0.103052 13.7283 15.5827
205 1 0.523388 13.0683 15.5134
206 1 1.00751 13.2027 16.2265
207 1 1.46881 12.5873 15.7248
208 1 1.52448 12.7212 14.7692
209 1 1.65506 12.0329 14.1291
210 1 0.995521 11.4862 14.5333
211 1 1.1905 10.6913 14.1139
212 1 1.08773 9.7632 14.0013
213 1 0.722684 8.90231 14.0108
214 1 0.347232 8.06435 13.9194
215 1 0.230248 7.14474 13.6697
216 1 1.062 7.1255 14.1257
217 1 1.78901 7.5694 13.744
218 1 2.05635 8.40631 13.4902
219 1 2.26909 8.96456 12.7758
220 1 2.0695 9.5696 12.0255
221 1 1.67817 8.88471 11.4974
222 1 0.869784 8.3427 11.5668
223 1 1.20809 7.90853 10.7859
224 1 1.18174 7.226 10.2074
225 1 0.260593 7.06096 10.2911
226 1 -0.0092765 7.38892 9.4734
227 1 -0.339975 6.71259 8.78174
228 1 -0.886982 7.08499 8.12507
229 1 -0.753363 8.02381 8.38158
230 1 -0.544284 8.28846 7.49262
231 1 -1.40633 8.66468 7.66583
232 1 -1.92924 7.95704 8.02725
233 1 -2.39798 7.13841 8.2888
234 1 -1.7704 6.42614 8.21028
235 1 -1.60555 6.29472 9.1464
236 1 -0.894506 5.77571 9.56231
237 1 -1.20295 5.204 10.3655
238 1 -1.3794 4.43347 9.85181
239 1 -1.13413 3.70935 9.32826
240 1 -1.40061 3.30424 8.50792
241 1 -1.47177 4.19784 8.50696
242 1 -1.35906 4.05145 7.5719
243 1 -1.3836 4.49719 6.70138
244 1 -1.84374 3.68331 6.57372
245 1 -2.42323 2.8967 6.31046
246 1 -1.72453 2.67388 5.68615
247 1 -2.39711 2.59441 5.02176
248 1 -2.17789 2.62366 4.05954
249 1 -3.09228 2.79192 3.95219
250 1 -3.33772 3.17572 3.12071
251 1 -3.99256 2.49958 3.17253
252 1 -3.67849 1.66064 3.20884
253 1 -3.9753 0.865711 3.51898
254 1 -3.54186 0.0183768 3.39039
255 1 -3.2755 0.138389 4.34136
256 1 -3.31172 0.63241 5.20272
ITEM: TIMESTEP
1820000
ITEM: NUMBER OF ATOMS
256
ITEM: BOX BOUNDS mm mm mm
-1.2800000000000000e+02 1.2800000000000000e+02
-1.2800000000000000e+02 1.2800000000000000e+02
-1.2800000000000000e+02 1.2800000000000000e+02
ITEM: ATOMS id type x y z
1 1 -36.8131 0.915618 24.5748
2 1 -37.6429 0.605195 24.8409
3 1 -38.2931 0.512844 24.1992
4 1 -37.7208 0.724647 23.4167
5 1 -38.0258 1.54049 23.0974
6 1 -38.5159 2.34179 23.0707
7 1 -37.5683 2.46099 22.9522
8 1 -37.1735 2.54002 22.1251
9 1 -36.2974 2.45436 21.7702
10 1 -36.4221 3.4641 21.6334
11 1 -37.0098 2.94263 21.133
12 1 -37.6503 3.67401 20.8948
13 1 -37.5833 4.1444 20.1013
14 1 -37.3832 4.12659 19.1481
15 1 -37.38 3.97067 18.2112
16 1 -37.2095 4.87656 17.8745
17 1 -37.4517 5.0712 16.9717
18 1 -38.2951 4.80695 17.135
19 1 -39.0882 5.10989 17.5537
20 1 -39.499 5.71483 18.0838
21 1 -39.0647 6.00319 18.8885
22 1 -38.5251 5.6388 19.6277
23 1 -37.859 6.14483 20.0675
24 1 -36.9815 5.67536 20.2768
25 1 -36.6644 6.39817 19.7244
26 1 -35.803 6.75889 19.9276
27 1 -34.9476 6.29498 20.0392
28 1 -34.4555 5.50655 20.2929
29 1 -34.0107 4.62675 20.1681
30 1 -33.2632 4.0751 20.4731
31 1 -33.3814 3.261 20.0599
32 1 -33.9115 2.7075 19.3993
33 1 -34.4 2.46649 18.643
34 1 -34.9125 2.98311 17.9999
35 1 -35.0787 3.88057 18.2039
36 1 -34.4801 4.55977 18.3907
37 1 -34.4404 5.38055 18.0423
38 1 -34.5218 4.75225 17.3453
39 1 -35.1148 4.64135 16.6092
40 1 -35.2358 5.47592 16.2343
41 1 -34.9466 5.3575 15.3557
42 1 -34.6188 5.56162 14.5183
43 1 -33.8302 6.00803 14.5688
44 1 -33.5427 6.00744 15.4966
45 1 -32.7416 6.14634 15.9398
46 1 -31.8698 6.08245 15.9978
47 1 -31.0489 6.47838 15.7287
48 1 -30.8511 6.8191 14.8455
49 1 -30.0526 7.13968 14.4577
50 1 -29.735 7.77646 13.8486
51 1 -29.9687 8.51925 14.5539
52 1 -29.0037 8.52118 14.7019
53 1 -28.1931 8.03968 14.8949
54 1 -27.8863 7.96495 15.7464
55 1 -27.2368 7.34529 15.973
56 1 -26.4541 7.57909 15.5262
57 1 -25.5939 7.40226 15.8668
58 1 -24.7034 7.55688 15.8843
59 1 -24.6714 7.89725 15.0019
60 1 -24.0532 7.31256 14.5454
61 1 -23.3438 6.78491 14.1872
62 1 -22.9871 5.99866 13.9624
63 1 -22.091 5.9647 13.7411
64 1 -21.135 6.0805 13.7728
65 1 -21.4369 6.55396 13.0559
66 1 -22.1529 6.30313 12.4378
67 1 -22.102 5.79867 11.6187
68 1 -21.4796 5.36245 11.0425
69 1 -21.5524 4.47396 10.8546
70 1 -20.8904 3.83369 10.9856
71 1 -21.5791 3.43824 10.5783
72 1 -21.0643 2.67272 10.4939
73 1 -21.4362 1.94681 11.0769
74 1 -22.1147 1.29992 10.9758
75 1 -21.6402 0.625898 11.4656
76 1 -21.4202 0.537335 12.4148
77 1 -21.2256 1.44458 12.6086
78 1 -20.9118 1.28742 13.5385
79 1 -20.6214 1.61679 14.384
80 1 -20.6419 2.33586 13.7907
81 1 -20.3096 3.23936 13.7073
82 1 -20.2903 3.7611 12.911
83 1 -19.401 3.89603 12.5668
84 1 -18.8325 4.64594 12.6888
85 1 -18.7815 5.01671 11.8387
86 1 -18.5631 4.66892 10.9989
87 1 -18.0791 3.86196 11.1029
88 1 -18.2275 3.02748 11.6177
89 1 -19.0221 3.0143 12.1856
90 1 -18.8213 2.64871 13.0613
91 1 -19.5642 2.16894 12.7583
92 1 -19.8356 1.88885 11.8545
93 1 -19.9755 1.38232 11.126
94 1 -19.3274 1.15364 10.4722
95 1 -18.4227 0.883784 10.4818
96 1 -18.1046 0.242666 11.0267
97 1 -18.805 -0.258881 11.4867
98 1 -19.4397 -0.975736 11.4114
99 1 -20.0633 -0.744186 10.6932
100 1 -20.3203 -0.0771362 10.0245
101 1 -20.7511 0.286084 9.27806
102 1 -20.6361 -0.119861 8.37876
103 1 -20.6299 -1.02885 8.33525
104 1 -20.0437 -1.61196 8.75659
105 1 -19.293 -2.06016 8.50512
106 1 -18.7931 -2.6913 7.93138
107 1 -18.0624 -2.59381 7.33982
108 1 -18.2152 -2.32411 6.4553
109 1 -18.1513 -2.09134 5.51221
110 1 -18.6603 -2.14428 4.76956
111 1 -18.2037 -2.80253 4.26465
112 1 -17.8077 -2.04857 3.87624
113 1 -17.3224 -1.23251 3.90753
114 1 -16.6508 -0.69443 4.28105
115 1 -15.7724 -0.561341 3.92622
116 1 -15.1437 -0.284278 3.29039
117 1 -15.4229 -0.310415 2.38115
118 1 -15.9911 -0.266011 1.66398
119 1 -16.902 -0.146859 1.26964
120 1 -17.3044 0.0744083 2.05356
121 1 -18.0108 0.815322 2.15134
122 1 -17.2523 1.24918 1.83192
123 1 -16.8374 2.07899 1.8012
124 1 -17.5876 2.3618 2.35564
125 1 -17.3591 3.1313 2.94779
126 1 -17.8026 3.85075 3.41269
127 1 -18.6218 3.6408 3.76057
128 1 -18.3656 3.71152 4.68066
129 1 -18.6625 2.88214 4.93629
130 1 -17.9917 2.55989 5.57809
131 1 -17.1487 2.53046 5.93909
132 1 -16.9524 1.77422 6.54307
133 1 -16.2949 1.6598 7.20817
134 1 -15.7261 1.59039 7.94954
135 1 -14.7843 1.57425 7.99601
136 1 -14.6871 2.47827 7.59293
137 1 -14.3617 3.22541 7.22031
138 1 -13.5471 3.64755 7.30798
139 1 -12.99 3.07534 6.81759
140 1 -12.3528 2.47491 7.18518
141 1 -11.4354 2.31294 7.41059
142 1 -10.9875 1.75096 6.7839
143 1 -10.8448 1.97985 5.87915
144 1 -10.6592 2.76979 5.3778
145 1 -10.9298 3.55088 5.86883
146 1 -10.9212 4.23885 5.21293
147 1 -10.5237 4.8829 4.65434
148 1 -10.6626 5.81185 4.52196
149 1 -11.3866 6.36677 4.10276
150 1 -11.0234 7.22702 4.04553
151 1 -10.7374 7.69642 3.33996
152 1 -10.7609 8.42189 3.92303
153 1 -10.7212 8.32458 4.84061
154 1 -10.8606 8.3075 5.81514
155 1 -11.046 7.57052 6.40885
156 1 -10.1352 7.62435 6.71179
157 1 -9.49565 7.8864 6.01058
158 1 -8.92485 7.09886 6.16353
159 1 -8.11621 7.33099 6.63497
160 1 -8.68853 7.83822 7.19993
161 1 -8.13234 7.75961 7.9562
162 1 -7.60432 6.97611 8.21068
163 1 -7.02857 6.46212 7.7089
164 1 -6.66967 6.49142 6.85759
165 1 -6.80753 6.35542 5.97636
166 1 -6.03231 6.57395 5.54524
167 1 -5.65548 6.63113 4.67171
168 1 -5.71943 6.43713 3.73467
169 1 -4.81164 6.27802 4.02532
170 1 -3.93931 6.55404 4.18925
171 1 -3.12035 6.46435 3.7294
172 1 -2.67973 6.11463 4.45027
173 1 -1.83248 6.00063 4.89416
174 1 -0.876999 5.99995 4.88067
175 1 -0.97697 5.18928 4.47158
176 1 -0.280172 5.51541 3.94561
177 1 0.523053 5.79832 3.55455
178 1 0.441016 6.34841 4.36389
179 1 0.763169 6.27995 5.2633
180 1 0.287569 6.95879 5.71677
181 1 -0.60223 7.34456 5.58479
182 1 -0.847617 8.26831 5.67718
183 1 -1.13238 8.25739 6.59274
184 1 -0.867952 8.70367 7.36969
185 1 -1.59243 8.55803 7.96577
186 1 -1.15896 8.70398 8.76129
187 1 -0.633276 9.35105 9.15654
188 1 -0.271844 10.2018 9.04434
189 1 -0.0758047 10.2247 9.99496
190 1 0.748843 10.3055 10.4493
191 1 0.831366 11.2591 10.2318
192 1 1.61792 11.0671 10.7932
193 1 1.64456 11.1541 11.7285
194 1 1.56928 11.3993 12.5962
195 1 1.60697 11.6052 13.5087
196 1 2.44162 12.0912 13.6221
197 1 3.0919 12.2628 14.2422
198 1 4.04169 12.1712 14.2139
199 1 4.49039 11.3787 14.0354
200 1 4.92961 10.5586 14.0368
201 1 5.47447 9.91953 14.4442
202 1 5.31774 9.05889 13.9703
203 1 4.71589 8.89008 13.2451
204 1 3.84337 8.59486 13.1651
205 1 4.04102 8.734 12.2094
206 1 3.75171 7.849 12.0301
207 1 2.80835 7.47945 12.1437
208 1 2.86374 6.89912 11.3958
209 1 2.24787 6.49886 10.8449
210 1 1.81738 5.65743 10.8104
211 1 2.13139 5.24119 10.0809
212 1 1.67325 5.00991 9.26149
213 1 1.78085 4.54762 8.44369
214 1 2.44452 5.18903 8.53357
215 1 3.21547 5.45343 8.99617
216 1 4.05539 5.82174 8.96175
217 1 4.14741 5.01592 8.48138
218 1 4.83353 4.97638 7.82709
219 1 4.02378 4.78294 7.44802
220 1 4.15905 4.08758 6.78181
221 1 3.39605 4.41916 6.26747
222 1 2.55819 4.45309 6.64419
223 1 2.79923 5.20632 7.10442
224 1 2.92677 6.09122 7.34065
225 1 2.47839 6.72168 7.84578
226 1 1.75032 7.03579 8.37267
227 1 1.02387 7.53291 8.53935
228 1 1.19867 8.46718 8.81754
229 1 0.259009 8.45757 8.86323
230 1 -0.419239 7.97968 9.3433
231 1 -0.951013 7.24468 9.08799
232 1 -1.61431 7.40326 9.67617
233 1 -2.29942 6.73507 9.62401
234 1 -2.79388 6.37904 8.92268
235 1 -3.02167 7.27949 9.00128
236 1 -3.32775 7.31906 9.88222
237 1 -3.45547 6.51139 10.2938
238 1 -4.23483 6 10.6971
239 1 -4.15785 6.01131 9.67696
240 1 -4.48265 5.26193 9.27371
241 1 -4.94207 4.96143 8.51741
242 1 -4.5269 5.55605 7.8908
243 1 -5.15287 6.2327 7.82437
244 1 -5.31918 5.63693 7.13212
245 1 -5.7333 5.71159 6.2608
246 1 -5.84345 5.44041 5.35085
247 1 -5.07793 4.95839 4.9727
248 1 -4.99657 4.4361 4.22083
249 1 -4.46827 3.75142 3.87795
250 1 -4.71178 3.17021 3.19756
251 1 -5.07567 4.06416 3.10814
252 1 -5.86504 4.55228 3.21256
253 1 -5.94825 5.31306 2.62928
254 1 -5.78302 6.0222 2.07485
255 1 -4.98388 6.49591 2.1945
256 1 -4.72544 7.39044 1.99884
ITEM: TIMESTEP
1830000
ITEM: NUMBER OF ATOMS
256
ITEM: BOX BOUNDS mm mm mm
-1.2800000000000000e+02 1.2800000000000000e+02
-1.2800000000000000e+02 1.2800000000000000e+02
-1.2800000000000000e+02 1.2800000000000000e+02
ITEM: ATOMS id type x y z
1 1 -43.6384 1.24083 25.1699
2 1 -43.9717 1.94434 24.5266
3 1 -43.8347 2.71592 24.0528
4 1 -43.1083 2.78477 23.4346
5 1 -43.1526 2.94143 22.4843
6 1 -42.4628 3.56049 22.1158
7 1 -42.3172 4.46455 21.9224
8 1 -41.9231 4.71472 22.7224
9 1 -41.219 4.79111 23.3427
10 1 -40.7992 4.27829 24.0154
11 1 -40.594 4.8346 24.7813
12 1 -39.787 4.76053 24.346
13 1 -38.9099 4.83847 23.9161
14 1 -38.9038 4.65243 22.9977
15 1 -38.8251 3.78301 22.541
16 1 -38.3871 3.27765 21.9178
17 1 -37.8575 3.02831 21.1597
18 1 -37.3046 2.83428 20.361
19 1 -36.9912 2.6699 19.5051
20 1 -36.597 2.39739 18.6754
21 1 -36.2639 2.05771 17.8898
22 1 -35.4305 1.68806 17.8872
23 1 -35.3766 2.57396 17.4944
24 1 -34.7539 3.31455 17.421
25 1 -33.807 3.43337 17.6171
26 1 -33.1819 3.41937 16.9373
27 1 -33.2733 2.57735 16.5935
28 1 -32.3599 2.48214 16.335
29 1 -31.5704 2.92275 15.9378
30 1 -31.0858 2.3496 15.3909
31 1 -31.2481 1.4397 15.3881
32 1 -31.5866 0.556299 15.5848
33 1 -32.3672 0.277169 16.0201
34 1 -32.2438 -0.102773 16.8786
35 1 -31.3794 -0.583891 16.919
36 1 -30.669 -0.403212 17.4667
37 1 -30.5756 0.253421 18.1782
38 1 -29.7251 0.626915 18.2781
39 1 -29.1582 0.949513 18.9529
40 1 -28.375 1.20346 18.5511
41 1 -28.1149 1.82423 19.218
42 1 -28.9921 2.09953 19.0239
43 1 -29.8262 2.57543 18.9831
44 1 -29.9012 2.79014 18.0689
45 1 -30.275 3.10647 17.2936
46 1 -29.8284 2.80533 16.482
47 1 -29.1271 3.01966 15.9257
48 1 -28.227 2.81835 15.8345
49 1 -27.8822 2.00463 16.2208
50 1 -27.2811 1.65462 15.5306
51 1 -26.3468 1.61463 15.5962
52 1 -25.3949 1.57175 15.5429
53 1 -25.0855 2.20202 14.9236
54 1 -25.3881 3.05652 14.8391
55 1 -25.3546 3.61811 14.098
56 1 -25.1107 4.21817 13.3962
57 1 -24.2471 3.71945 13.4123
58 1 -24.2167 3.36449 12.5171
59 1 -24.2084 2.95826 11.6678
60 1 -23.7844 2.27728 11.046
61 1 -24.037 1.78755 11.8771
62 1 -24.2613 2.34201 12.5934
63 1 -24.5385 1.56464 12.9854
64 1 -24.4972 0.648059 13.2591
65 1 -24.1258 -0.0914426 12.7683
66 1 -24.7526 -0.736981 12.3726
67 1 -25.0177 -1.63846 12.5312
68 1 -24.1356 -1.40054 12.8738
69 1 -24.0044 -0.905076 13.6705
70 1 -23.1777 -0.439135 13.635
71 1 -22.7831 0.289162 13.1326
72 1 -22.4137 0.390185 12.2447
73 1 -21.4997 0.226373 12.0724
74 1 -20.606 0.315181 12.2354
75 1 -20.1562 -0.534371 12.2629
76 1 -19.541 -0.194977 11.6352
77 1 -19.7582 0.0465197 10.7208
78 1 -19.592 0.928926 10.9756
79 1 -19.8369 1.82658 11.1069
80 1 -19.5221 2.75092 11.2335
81 1 -19.7718 3.6608 11.4266
82 1 -19.5565 4.26811 12.1275
83 1 -20.1067 4.9623 11.9128
84 1 -20.9394 4.73862 11.6216
85 1 -21.6049 4.01476 11.4239
86 1 -22.2204 4.24675 10.7268
87 1 -22.809 4.31796 9.95367
88 1 -22.2862 3.54443 9.86149
89 1 -22.4295 2.59578 10.112
90 1 -23.204 2.28702 9.78053
91 1 -23.485 2.31646 8.88692
92 1 -23.7418 1.7017 8.23163
93 1 -22.7381 1.78425 8.29349
94 1 -21.8356 1.71002 8.46886
95 1 -20.9391 1.43053 8.351
96 1 -20.0214 1.61079 8.25066
97 1 -19.3819 1.27397 7.53132
98 1 -19.0266 1.22427 6.66449
99 1 -19.2874 0.353821 6.2922
100 1 -19.5586 0.854136 5.5606
101 1 -19.7719 1.76249 5.37827
102 1 -20.1828 1.73334 4.50564
103 1 -20.6502 0.897063 4.35454
104 1 -20.0422 0.551198 3.69979
105 1 -19.8928 -0.17603 3.14229
106 1 -18.9902 -0.385416 3.48921
107 1 -18.2157 -0.244158 3.97592
108 1 -17.3892 0.103952 3.75464
109 1 -16.6374 0.0273695 4.35082
110 1 -16.1227 0.480731 4.97742
111 1 -16.1705 1.00419 5.7927
112 1 -15.7379 0.948888 6.62107
113 1 -14.7765 1.07865 6.78312
114 1 -13.9125 1.34369 6.92332
115 1 -13.8391 1.97962 7.66122
116 1 -12.9024 1.84347 7.91591
117 1 -12.2037 1.35379 8.31994
118 1 -12.6657 0.533148 8.56494
119 1 -11.8216 0.315667 8.22551
120 1 -11.6379 -0.442821 8.72775
121 1 -11.6301 -1.34685 8.89404
122 1 -10.9944 -1.74795 8.44174
123 1 -10.2004 -2.2327 8.42931
124 1 -10.3514 -2.42398 7.56147
125 1 -10.8412 -2.94751 6.96986
126 1 -10.315 -2.62383 6.25461
127 1 -10.7581 -1.81139 6.36589
128 1 -11.6322 -1.5928 6.00636
129 1 -12.2963 -1.52939 6.68853
130 1 -12.7948 -1.24033 5.98318
131 1 -12.9127 -0.471749 6.51162
132 1 -13.6731 -0.448099 6.01423
133 1 -14.4511 -0.381465 5.52135
134 1 -14.8677 -0.164046 4.67739
135 1 -14.6051 0.690306 4.38452
136 1 -14.6322 1.62524 4.44847
137 1 -14.271 2.47623 4.36661
138 1 -13.3677 2.75166 4.39523
139 1 -12.5658 3.22362 4.29485
140 1 -12.2467 3.51818 3.45997
141 1 -11.83 4.31348 3.11265
142 1 -11.3088 5.09026 2.81663
143 1 -11.9448 5.38021 3.43908
144 1 -11.2429 4.99177 4.00092
145 1 -10.62 4.37021 3.59541
146 1 -10.1591 4.23939 2.81613
147 1 -9.67375 5.02194 2.43219
148 1 -9.7836 5.69712 1.83726
149 1 -9.43896 6.58811 1.56045
150 1 -9.32149 7.50855 1.77479
151 1 -8.65852 7.62913 2.37828
152 1 -8.19266 7.65618 3.19614
153 1 -7.2088 7.85799 3.30468
154 1 -6.4718 8.52418 3.39257
155 1 -5.78911 9.14891 3.68301
156 1 -5.80026 8.75662 4.58247
157 1 -5.49772 8.94645 5.43036
158 1 -5.16562 9.07209 6.30894
159 1 -5.02285 9.88773 5.89724
160 1 -4.63657 10.7111 6.30855
161 1 -4.16738 10.5729 7.10067
162 1 -3.70528 10.37 7.8574
163 1 -2.85959 10.0402 7.78804
164 1 -2.46836 10.7595 7.3458
165 1 -1.53086 10.6143 7.55763
166 1 -0.923554 9.90839 7.65085
167 1 -0.371535 9.08546 7.40706
168 1 -0.0174014 9.15214 6.54132
169 1 0.731759 9.66267 6.67542
170 1 1.04244 8.85502 7.20269
171 1 1.82778 8.30481 7.16436
172 1 2.56728 8.80531 6.90825
173 1 3.45449 9.11 6.65124
174 1 3.4355 8.46576 5.99415
175 1 3.43855 7.57644 5.80366
176 1 2.59375 7.30139 5.41963
177 1 1.76872 6.9069 5.24222
178 1 1.19879 6.38264 5.75669
179 1 1.82719 6.40904 6.42909
180 1 2.58222 6.35485 7.06289
181 1 3.10209 7.06667 7.47157
182 1 2.69094 7.52051 8.17412