ITEM: TIMESTEP
1280000
ITEM: NUMBER OF ATOMS
256
ITEM: BOX BOUNDS mm mm mm
-1.2800000000000000e+02 1.2800000000000000e+02
-1.2800000000000000e+02 1.2800000000000000e+02
-1.2800000000000000e+02 1.2800000000000000e+02
ITEM: ATOMS id type x y z
1 1 -31.9521 20.4808 -4.52326
2 1 -31.7592 20.6548 -5.45683
3 1 -30.9614 20.6423 -4.96068
4 1 -30.9406 20.6629 -3.99582
5 1 -30.5555 20.062 -3.39348
6 1 -30.1315 20.4405 -2.61795
7 1 -29.5276 21.0822 -2.37558
8 1 -28.6619 21.0932 -2.01729
9 1 -28.5728 21.3065 -1.09125
10 1 -28.7004 20.7713 -0.253513
11 1 -29.019 20.6106 0.671584
12 1 -29.435 20.5256 1.47552
13 1 -30.0077 19.7698 1.43971
14 1 -30.8965 19.7676 1.01051
15 1 -30.809 19.2704 0.216504
16 1 -30.4479 18.4948 -0.222655
17 1 -29.6084 18.1248 0.0898428
18 1 -29.6461 17.7925 0.955784
19 1 -30.2371 18.0325 1.66662
20 1 -30.1384 18.6129 2.41744
21 1 -29.8566 18.7685 3.34757
22 1 -29.5811 18.9826 4.17251
23 1 -28.7267 18.5867 4.14421
24 1 -28.0462 18.1662 3.66192
25 1 -27.5705 17.9929 2.86096
26 1 -27.0382 17.2223 2.90001
27 1 -26.1473 16.8249 3.17234
28 1 -26.3311 15.8928 3.1397
29 1 -25.585 15.3759 3.48431
30 1 -24.9074 14.7213 3.48938
31 1 -25.0627 14.0032 4.10394
32 1 -25.0181 13.5751 4.9001
33 1 -24.8432 12.6854 5.14497
34 1 -25.5948 12.2725 5.50539
35 1 -26.3014 11.9043 6.04372
36 1 -26.8903 12.6504 6.14045
37 1 -26.4208 13.4396 6.17508
38 1 -25.9354 13.5835 6.99679
39 1 -26.6885 14.0424 7.31702
40 1 -26.1279 14.6576 6.86717
41 1 -26.4547 15.1976 6.23923
42 1 -25.694 14.7981 5.99232
43 1 -24.8342 14.3857 5.819
44 1 -24.2306 14.6443 6.51294
45 1 -24.1744 13.6815 6.67361
46 1 -23.2157 13.7997 6.83167
47 1 -22.4596 13.5541 7.29634
48 1 -22.5566 14.198 7.92711
49 1 -23.2071 14.7751 7.68902
50 1 -23.4583 15.4229 7.07892
51 1 -23.403 15.9866 6.27289
52 1 -22.9702 15.7192 5.46935
53 1 -22.2977 16.1483 4.93795
54 1 -21.9227 16.0091 4.08233
55 1 -21.9696 16.1578 3.15484
56 1 -21.3111 16.5105 2.50787
57 1 -20.444 16.8541 2.64742
58 1 -19.8781 16.9983 1.99353
59 1 -19.3947 17.3747 1.27908
60 1 -19.1216 16.6387 0.853874
61 1 -19.0974 15.7332 0.602114
62 1 -18.8359 15.0262 1.16508
63 1 -17.8913 15.0816 1.22794
64 1 -17.4541 14.7662 2.04449
65 1 -17.5461 14.9533 2.92251
66 1 -18.0874 14.1758 3.01111
67 1 -18.7328 13.554 3.02468
68 1 -18.5662 13.7904 3.94149
69 1 -18.9501 14.6246 4.11061
70 1 -19.8073 14.857 4.32372
71 1 -20.4679 14.3099 3.99546
72 1 -19.7817 13.8063 4.43279
73 1 -19.7762 13.592 5.33785
74 1 -19.2488 13.8257 6.08256
75 1 -18.9909 13.048 6.43061
76 1 -18.1301 12.8618 6.89407
77 1 -17.9945 11.9877 6.76389
78 1 -17.6195 12.1885 5.94424
79 1 -17.1141 11.549 5.43052
80 1 -17.4427 10.7222 5.87146
81 1 -17.5636 10.3209 6.68131
82 1 -17.1848 9.72908 7.22691
83 1 -16.7481 9.87252 8.0099
84 1 -16.1681 10.0667 8.78176
85 1 -15.4694 10.5552 9.22442
86 1 -15.4191 11.1464 9.99325
87 1 -15.0683 11.6361 9.258
88 1 -15.7442 11.8709 8.68324
89 1 -16.3739 11.4828 8.1295
90 1 -15.7937 11.9002 7.46545
91 1 -15.4702 11.3909 6.75095
92 1 -15.7053 10.5134 6.59838
93 1 -16.4295 9.98783 6.24817
94 1 -16.1641 9.9027 5.38901
95 1 -15.9222 10.2201 4.53786
96 1 -14.9448 10.289 4.56207
97 1 -14.4727 10.6405 3.86029
98 1 -14.1213 10.7817 3.04665
99 1 -13.5713 11.1067 3.6859
100 1 -13.1592 11.9438 3.49355
101 1 -13.3922 12.5888 4.18523
102 1 -12.9144 13.3908 3.996
103 1 -13.4046 13.956 3.46708
104 1 -13.808 14.0579 4.31092
105 1 -14.5652 13.9381 4.86711
106 1 -15.4262 14.1368 5.08767
107 1 -15.9738 14.2859 4.299
108 1 -16.0167 14.7156 3.40019
109 1 -16.3014 13.8496 3.22907
110 1 -16.8182 13.7497 2.45939
111 1 -16.3443 13.7064 1.59832
112 1 -16.3758 12.783 1.71085
113 1 -16.9267 11.9884 1.38887
114 1 -17.2312 12.0531 0.513284
115 1 -16.7977 11.2019 0.538654
116 1 -15.897 11.1676 0.904466
117 1 -14.9842 11.2777 1.22563
118 1 -15.4468 11.3941 2.07039
119 1 -15.1627 10.4236 1.94544
120 1 -16.0826 10.3048 1.70659
121 1 -16.5615 9.48212 1.71446
122 1 -16.3165 8.76918 1.15753
123 1 -17.2968 8.56282 1.08218
124 1 -17.024 7.6732 0.939617
125 1 -16.8571 7.70335 -0.024622
126 1 -17.7058 7.36024 -0.0611678
127 1 -17.7205 6.37066 0.00926041
128 1 -18.0857 5.63238 0.481963
129 1 -17.389 5.57555 1.08895
130 1 -16.821 5.20547 0.488951
131 1 -15.9346 5.2831 0.811781
132 1 -15.9881 5.04324 -0.0914389
133 1 -15.4842 5.78492 -0.262634
134 1 -14.7905 6.3497 0.106258
135 1 -14.5395 6.88744 -0.611788
136 1 -15.4109 6.99605 -0.920224
137 1 -15.6688 7.36741 -0.0724294
138 1 -15.3451 8.11233 0.444244
139 1 -14.9803 7.57255 1.082
140 1 -14.7345 7.04368 1.77756
141 1 -14.6954 7.33131 2.66633
142 1 -15.1247 7.2825 3.59545
143 1 -14.7736 6.41724 3.64238
144 1 -14.0422 5.85781 3.74629
145 1 -13.1306 5.85149 3.92832
146 1 -13.0555 5.9086 3.04089
147 1 -12.53 5.70161 2.33855
148 1 -12.5475 5.50578 1.42996
149 1 -12.1771 4.61805 1.40463
150 1 -12.9644 4.51795 1.80486
151 1 -13.0274 4.00765 1.02924
152 1 -12.8204 3.25094 1.50346
153 1 -13.5761 2.68379 1.50838
154 1 -14.1676 2.58185 2.30936
155 1 -14.0225 1.64746 2.21753
156 1 -14.4565 0.87221 2.6351
157 1 -14.0066 0.110017 2.88565
158 1 -14.8765 -0.174193 3.02037
159 1 -15.1533 -0.99819 3.34288
160 1 -14.584 -0.830376 4.10878
161 1 -14.4048 -1.78889 4.10623
162 1 -13.798 -2.4906 4.1706
163 1 -13.2504 -2.23535 3.43947
164 1 -12.9462 -1.53201 2.92801
165 1 -12.54 -1.6877 2.14312
166 1 -12.7533 -1.22649 1.31555
167 1 -12.9286 -0.318573 1.70631
168 1 -13.5133 -0.337544 0.933224
169 1 -13.3607 -1.02699 0.361587
170 1 -13.8185 -1.89041 0.434735
171 1 -13.8986 -2.82679 0.266864
172 1 -14.543 -2.57786 0.932102
173 1 -15.4255 -2.62721 0.880101
174 1 -15.4696 -3.30128 1.52243
175 1 -15.6199 -4.06862 1.07703
176 1 -16.3174 -4.66549 1.34834
177 1 -16.4506 -5.28266 2.0444
178 1 -17.3245 -5.49656 1.71518
179 1 -17.1575 -5.91481 2.53315
180 1 -16.6356 -6.2178 3.22007
181 1 -17.1325 -6.3594 4.08596
182 1 -17.547 -6.13359 4.9119
183 1 -16.752 -5.73645 5.23453
184 1 -16.9184 -5.56219 6.13493
185 1 -16.5821 -4.76853 6.47969
186 1 -15.8229 -4.27803 6.76011
187 1 -15.3064 -3.82874 6.13108
188 1 -15.2334 -3.85593 5.20606
189 1 -15.3677 -3.56841 4.3065
190 1 -14.8515 -3.7797 3.51341
191 1 -14.7675 -4.25429 2.73221
192 1 -13.8939 -4.57039 2.98731
193 1 -14.4334 -5.39535 2.83634
194 1 -14.4608 -5.87506 2.03358
195 1 -14.0936 -5.91927 1.19193
196 1 -14.3884 -6.80811 1.05228
197 1 -15.2923 -7.01698 1.09563
198 1 -15.3072 -7.38311 1.95977
199 1 -16.0626 -7.84364 2.28161
200 1 -15.494 -8.57947 2.47711
201 1 -15.2693 -9.44515 2.29388
202 1 -15.5087 -10.3653 2.14712
203 1 -15.7082 -11.21 2.52216
204 1 -16.449 -11.2226 1.99399
205 1 -16.7873 -12.1003 1.96055
206 1 -17.1075 -12.834 2.45074
207 1 -18.0053 -12.5876 2.23379
208 1 -17.7475 -12.9514 1.4141
209 1 -17.0699 -13.3309 0.892968
210 1 -16.6018 -12.6275 0.489455
211 1 -17.1973 -11.8705 0.526521
212 1 -17.4957 -10.95 0.504876
213 1 -18.2365 -10.5219 0.929973
214 1 -18.4362 -9.99443 0.211678
215 1 -18.9936 -9.47323 0.716365
216 1 -19.7156 -8.94589 1.01101
217 1 -20.1015 -8.16833 0.678739
218 1 -19.8449 -7.25127 0.521027
219 1 -19.6091 -6.73044 1.2742
220 1 -19.0921 -6.29738 0.588176
221 1 -19.4041 -5.40207 0.587117
222 1 -19.2036 -4.66464 0.0685532
223 1 -18.5914 -4.27308 -0.554961
224 1 -17.614 -4.24356 -0.523199
225 1 -17.1542 -3.43746 -0.205227
226 1 -17.7606 -2.7273 -0.169818
227 1 -18.4816 -2.46199 0.347755
228 1 -19.287 -2.21815 -0.0832504
229 1 -19.2384 -1.42511 0.445554
230 1 -19.4759 -0.652569 0.987434
231 1 -19.3983 -1.36236 1.74181
232 1 -19.509 -1.55927 2.65156
233 1 -18.7294 -1.0165 2.475
234 1 -18.0804 -0.511053 2.96352
235 1 -17.3785 0.00716056 3.26313
236 1 -17.424 0.594375 2.55555
237 1 -16.7678 0.35991 1.93034
238 1 -17.5861 0.0803303 1.41545
239 1 -17.5423 0.772887 0.82984
240 1 -18.0363 1.55997 0.666733
241 1 -17.4245 1.66045 -0.0114994
242 1 -16.5667 2.06595 0.11015
243 1 -15.725 2.56402 0.153217
244 1 -15.053 3.15446 -0.0420094
245 1 -15.3716 3.84654 -0.632845
246 1 -15.5545 3.86436 -1.57749
247 1 -14.988 4.02495 -2.2969
248 1 -14.3536 3.92141 -1.61177
249 1 -14.3733 3.36694 -0.851109
250 1 -14.3671 2.5408 -0.459124
251 1 -14.4669 1.58849 -0.627386
252 1 -15.2254 1.30362 -0.215636
253 1 -15.9869 0.983211 -0.631616
254 1 -16.302 0.235501 -1.0784
255 1 -17.0498 0.615249 -0.592309
256 1 -17.6128 0.0179635 -1.10795
ITEM: TIMESTEP
1290000
ITEM: NUMBER OF ATOMS
256
ITEM: BOX BOUNDS mm mm mm
-1.2800000000000000e+02 1.2800000000000000e+02
-1.2800000000000000e+02 1.2800000000000000e+02
-1.2800000000000000e+02 1.2800000000000000e+02
ITEM: ATOMS id type x y z
1 1 -27.0066 19.6884 4.62812
2 1 -26.1621 19.4246 4.1895
3 1 -26.3071 20.1842 3.65708
4 1 -26.2447 20.4605 2.75657
5 1 -25.6343 21.1725 2.54923
6 1 -25.4324 21.1002 1.64927
7 1 -25.5696 22.0336 1.58552
8 1 -24.8945 21.8245 0.892571
9 1 -25.1152 22.2284 0.0371387
10 1 -26.0291 22.2109 0.313023
11 1 -26.1547 22.6876 -0.464122
12 1 -26.2146 22.4372 -1.36173
13 1 -27.1269 22.217 -1.49316
14 1 -27.4141 22.2247 -0.594338
15 1 -28.2325 22.1799 -0.0677156
16 1 -28.2718 21.3219 0.336445
17 1 -28.9932 20.6576 0.290356
18 1 -29.8219 20.1497 0.563535
19 1 -30.4084 19.689 1.14586
20 1 -30.084 18.7708 0.900513
21 1 -29.4324 19.23 1.35155
22 1 -28.9701 19.2109 2.17912
23 1 -28.8306 18.5077 2.7758
24 1 -28.6958 17.6288 3.11809
25 1 -28.7303 17.1604 2.25582
26 1 -28.9614 16.2362 2.11459
27 1 -28.1476 15.8824 1.75353
28 1 -28.09 15.8821 0.775492
29 1 -27.2288 15.5821 0.452286
30 1 -26.5365 16.2369 0.630873
31 1 -27.222 16.483 1.23131
32 1 -26.6869 16.4934 1.98965
33 1 -25.9006 16.0232 1.73565
34 1 -25.5992 16.7452 1.22837
35 1 -26.3034 17.3477 1.46413
36 1 -25.8408 17.894 2.07966
37 1 -26.1378 17.5962 2.93541
38 1 -25.4333 17.0469 3.00032
39 1 -25.4814 16.1642 3.30039
40 1 -25.5881 16.1014 4.2244
41 1 -24.7619 15.6772 4.24627
42 1 -24.2687 14.8507 4.14963
43 1 -23.7311 14.0387 4.00304
44 1 -23.5371 13.0661 4.02703
45 1 -24.3585 12.8161 3.57057
46 1 -25.1723 12.5618 4.04584
47 1 -24.9315 12.4409 4.93042
48 1 -24.1833 12.7669 5.46984
49 1 -23.3789 13.0275 5.11657
50 1 -23.6138 13.9478 5.32478
51 1 -23.0856 14.6969 5.19664
52 1 -22.5163 15.2389 5.74961
53 1 -21.7429 15.3778 6.20466
54 1 -21.703 15.6452 7.12205
55 1 -21.3314 15.2418 7.90276
56 1 -20.9654 14.3527 7.77325
57 1 -21.0359 13.5215 7.30767
58 1 -20.5848 13.3489 6.54996
59 1 -19.9004 13.2409 5.92599
60 1 -19.9465 12.3109 5.81231
61 1 -20.0915 12.393 4.87872
62 1 -19.3103 11.9125 4.75929
63 1 -19.2527 10.9871 4.69135
64 1 -19.6758 10.358 4.17837
65 1 -19.1547 10.3691 3.39814
66 1 -19.0818 9.44823 3.11463
67 1 -18.2831 9.29627 2.68926
68 1 -17.6691 8.83821 2.04954
69 1 -17.9697 8.73069 1.17962
70 1 -17.172 8.73853 0.640614
71 1 -16.3108 8.76784 0.977816
72 1 -15.7589 9.42886 1.36911
73 1 -15.1236 8.99584 1.8422
74 1 -14.438 8.47186 2.26846
75 1 -14.8108 7.99287 2.96017
76 1 -14.1311 8.49614 3.42344
77 1 -14.2547 9.42246 3.12767
78 1 -15.1657 9.45036 3.44654
79 1 -16.0714 9.74006 3.65101
80 1 -15.5658 10.0533 4.39786
81 1 -14.7036 10.3066 4.63269
82 1 -14.6885 9.9456 5.49992
83 1 -15.6465 10.083 5.53375
84 1 -15.244 9.97605 6.38568
85 1 -15.2665 10.9105 6.39724
86 1 -14.4371 11.2986 6.48022
87 1 -13.904 12.0206 6.63997
88 1 -13.775 11.8915 5.72767
89 1 -14.5713 12.3526 5.70496
90 1 -15.491 12.6364 5.67091
91 1 -15.3002 13.4094 6.03018
92 1 -15.4921 13.8674 6.83368
93 1 -14.8968 13.2302 7.19518
94 1 -14.237 13.5889 6.64207
95 1 -13.2535 13.7017 6.40088
96 1 -13.2838 13.5902 5.48126
97 1 -13.7863 14.2544 4.97938
98 1 -13.8339 15.1986 5.2371
99 1 -13.7175 16.0674 4.9481
100 1 -13.2132 16.6979 4.52913
101 1 -12.5328 17.2103 4.0924
102 1 -13.0541 17.8161 3.6342
103 1 -12.4496 18.1126 2.98674
104 1 -12.4684 18.6588 2.27117
105 1 -12.636 18.1363 1.4832
106 1 -12.8913 18.2419 0.60022
107 1 -12.98 18.0498 -0.286585
108 1 -13.4397 17.36 -0.663144
109 1 -14.1161 16.8151 -1.07309
110 1 -14.1028 16.0644 -1.67903
111 1 -13.7127 15.7871 -2.46025
112 1 -13.0267 15.2066 -2.18548
113 1 -12.6161 14.4642 -1.86117
114 1 -13.4563 14.1775 -1.48768
115 1 -13.817 13.3343 -1.237
116 1 -13.2803 13.0888 -1.97884
117 1 -12.514 12.5592 -2.34363
118 1 -11.7192 12.8695 -2.66056
119 1 -11.333 12.0235 -2.48278
120 1 -10.7656 11.3574 -2.91122
121 1 -11.2881 10.5525 -3.00436
122 1 -12.1934 10.3695 -3.36385
123 1 -11.8454 9.63131 -3.88504
124 1 -12.4787 9.22909 -3.2761
125 1 -13.2147 8.82164 -3.62261
126 1 -13.3941 7.89404 -3.65175
127 1 -12.3818 7.81693 -3.57732
128 1 -11.509 7.53814 -3.78789
129 1 -11.1796 6.69707 -3.62693
130 1 -11.1042 5.83521 -3.17296
131 1 -11.2566 5.90023 -2.26962
132 1 -10.6036 6.44881 -1.8922
133 1 -9.99788 5.94262 -1.40681
134 1 -9.6782 5.0892 -1.72436
135 1 -8.79061 4.88376 -2.05922
136 1 -9.21067 4.05621 -2.25564
137 1 -9.90682 3.7016 -1.8014
138 1 -9.10285 3.56249 -1.36744
139 1 -8.34925 3.24756 -0.856031
140 1 -7.59423 2.89475 -0.326003
141 1 -7.57449 2.24358 0.323992
142 1 -8.20211 1.81539 0.886484
143 1 -8.15427 2.39201 1.64397
144 1 -8.57516 2.01386 2.43698
145 1 -8.58427 1.72377 3.3383
146 1 -9.09024 1.82976 4.10871
147 1 -9.91175 1.73563 4.54157
148 1 -9.57228 0.855146 4.4427
149 1 -8.54565 0.876939 4.48031
150 1 -8.16428 0.231324 5.08976
151 1 -7.44965 0.816158 4.89135
152 1 -6.76859 0.605028 4.25224
153 1 -7.34749 0.124123 3.68095
154 1 -7.7936 -0.55243 4.15766
155 1 -8.64129 -0.902076 3.95911
156 1 -9.05495 -1.36605 4.64817
157 1 -9.99786 -1.51676 4.70332
158 1 -10.389 -2.21679 4.17257
159 1 -9.53182 -2.4893 3.89281
160 1 -9.71173 -3.06582 3.17338
161 1 -9.4133 -2.30929 2.72436
162 1 -9.11262 -2.74578 1.91966
163 1 -10.0576 -2.90333 2.02914
164 1 -10.8644 -2.43464 1.78435
165 1 -11.0653 -1.49641 1.73286
166 1 -11.9344 -1.66894 1.36144
167 1 -11.9147 -2.21376 2.14879
168 1 -12.8815 -2.51477 2.19888
169 1 -13.6208 -2.38491 2.69975
170 1 -12.9059 -2.05032 3.22363
171 1 -12.7133 -1.74816 4.02072
172 1 -13.6322 -1.91148 4.21025
173 1 -13.6592 -2.08052 5.13871
174 1 -12.767 -1.94052 5.4119
175 1 -12.5131 -2.09991 6.34225
176 1 -13.0244 -2.88316 5.99749
177 1 -13.3856 -3.17418 5.18276
178 1 -13.2281 -3.99936 4.7917
179 1 -12.7804 -4.04178 3.98459
180 1 -12.1755 -4.32798 3.35371
181 1 -12.0195 -4.76025 4.154
182 1 -11.1803 -5.10772 4.28515
183 1 -10.5322 -4.60089 3.82001
184 1 -10.504 -4.5048 2.85795
185 1 -10.7712 -4.56611 1.91945
186 1 -11.5666 -5.09086 2.01512
187 1 -11.8397 -5.92415 2.23369
188 1 -11.4795 -6.74773 2.58464
189 1 -11.1146 -7.4215 3.12652
190 1 -12.0003 -7.21857 3.4368
191 1 -12.8457 -6.88933 3.55673
192 1 -13.4937 -7.10578 4.22732
193 1 -14.2306 -7.80927 4.23169
194 1 -15.0334 -7.94282 4.69969
195 1 -14.8299 -8.69319 4.15808
196 1 -15.6182 -9.17073 4.04183
197 1 -15.9708 -10.0764 4.00282
198 1 -16.1098 -10.7525 3.37248
199 1 -15.5927 -10.9768 2.53937
200 1 -15.5926 -11.7758 2.03293
201 1 -15.3525 -12.5734 2.46612
202 1 -15.9624 -12.8578 1.87935
203 1 -16.85 -12.5459 1.50961
204 1 -17.2431 -12.6016 0.64795
205 1 -16.6656 -12.6019 -0.168009
206 1 -16.1784 -11.9707 0.388592
207 1 -15.3857 -12.1399 0.903307
208 1 -15.5516 -11.2092 1.12353
209 1 -15.8043 -10.663 0.376397
210 1 -16.1819 -9.83127 0.641952
211 1 -16.7843 -9.33425 1.18199
212 1 -17.7012 -9.08072 1.16892
213 1 -18.1294 -8.54403 0.486902
214 1 -18.5301 -7.74233 0.342787
215 1 -18.2274 -6.9316 -0.00411153
216 1 -18.8819 -6.50546 0.524809
217 1 -18.9663 -5.58776 0.409248
218 1 -18.7784 -4.73354 0.726507
219 1 -18.1212 -4.20108 1.08348
220 1 -17.7624 -3.4753 1.5383
221 1 -16.9306 -3.08349 1.60551
222 1 -16.2597 -2.48332 1.40968
223 1 -16.7423 -2.6555 0.636732
224 1 -17.2436 -2.23543 -0.0688793
225 1 -17.8477 -2.60475 0.562572
226 1 -17.8827 -1.90967 1.24118
227 1 -17.9096 -1.35104 1.99774
228 1 -17.2058 -1.12329 2.53461
229 1 -17.0485 -1.81284 3.16689
230 1 -17.0277 -2.73248 3.19756
231 1 -16.9439 -3.66686 3.18318
232 1 -16.0762 -3.66631 2.80571
233 1 -16.0376 -4.3785 2.18338
234 1 -15.6288 -4.6089 1.32292
235 1 -15.4119 -4.11796 0.565445
236 1 -15.1813 -4.77461 -0.146547
237 1 -14.4725 -5.12466 -0.585893
238 1 -13.7502 -4.99842 -1.17448
239 1 -13.6956 -5.33395 -2.0498
240 1 -13.7251 -5.0964 -2.95615
241 1 -14.2613 -4.60024 -3.48548
242 1 -14.2122 -4.14901 -4.33742
243 1 -13.5268 -3.58883 -4.65377
244 1 -12.6 -3.62287 -4.48924
245 1 -13.0992 -3.31578 -3.71574
246 1 -12.6321 -3.34157 -2.89877
247 1 -12.4592 -3.09834 -2.00694
248 1 -12.274 -3.58361 -1.20501
249 1 -11.8838 -4.24809 -1.80693
250 1 -12.6502 -4.34815 -2.37339
251 1 -12.0681 -4.70153 -3.04019
252 1 -12.7256 -5.27557 -3.4385
253 1 -12.6174 -6.18301 -3.09011
254 1 -13.082 -6.6055 -2.35963
255 1 -12.256 -6.97387 -2.5449
256 1 -11.3642 -6.95544 -2.33436
ITEM: TIMESTEP
1300000
ITEM: NUMBER OF ATOMS
256
ITEM: BOX BOUNDS mm mm mm
-1.2800000000000000e+02 1.2800000000000000e+02
-1.2800000000000000e+02 1.2800000000000000e+02
-1.2800000000000000e+02 1.2800000000000000e+02
ITEM: ATOMS id type x y z
1 1 -24.7031 19.7076 -5.38996
2 1 -24.9638 20.3547 -4.78251
3 1 -24.7018 20.3505 -3.8781
4 1 -25.0643 19.5978 -3.54017
5 1 -24.91 19.1185 -2.64957
6 1 -25.7838 19.2014 -2.26994
7 1 -26.3618 19.7676 -2.69406
8 1 -26.3703 20.4663 -2.05213
9 1 -26.6232 21.1534 -1.44163
10 1 -26.3536 21.2594 -0.514016
11 1 -26.8108 21.3547 0.280471
12 1 -27.1111 20.4543 0.162974
13 1 -27.85 20.7905 -0.2652
14 1 -27.5671 21.4917 -0.87111
15 1 -27.9521 21.0205 -1.5247
16 1 -28.6167 20.4379 -1.22279
17 1 -29.1857 20.0897 -0.537658
18 1 -29.5469 20.885 -0.860307
19 1 -29.2563 21.7276 -0.568903
20 1 -29.0079 22.6643 -0.36918
21 1 -28.1513 22.9065 0.0075437
22 1 -28.4027 22.9973 0.896657
23 1 -28.3037 22.8498 1.7847
24 1 -29.2247 22.7156 1.61566
25 1 -29.0609 22.5126 2.5357
26 1 -29.3872 22.3425 3.42669
27 1 -29.6831 22.6937 4.21886
28 1 -29.2339 22.5903 5.05089
29 1 -30.0166 22.3322 5.52229
30 1 -30.7992 22.8905 5.40751
31 1 -31.5441 22.4666 4.92652
32 1 -31.1624 22.1088 4.13944
33 1 -31.4006 21.1604 4.27784
34 1 -30.6872 20.8609 4.87747
35 1 -30.0039 20.2868 5.05218
36 1 -29.2262 20.1654 4.54622
37 1 -29.1694 19.5207 3.83272
38 1 -29.3706 18.9079 3.13499
39 1 -28.8376 18.4883 3.86571
40 1 -29.3203 17.739 3.43586
41 1 -29.0513 16.9754 2.93675
42 1 -28.6001 16.1344 2.84416
43 1 -28.925 15.7431 2.06106
44 1 -28.1086 15.2647 2.44989
45 1 -27.99 14.8899 1.61618
46 1 -27.2218 14.8896 1.03036
47 1 -26.5015 14.7277 1.69228
48 1 -25.7777 14.403 1.22229
49 1 -24.9708 14.1967 1.65535
50 1 -24.8664 14.1966 2.57794
51 1 -23.9613 14.0453 2.60345
52 1 -23.8205 13.3115 1.9881
53 1 -23.4713 13.4795 1.1162
54 1 -22.6268 13.4106 0.704839
55 1 -21.7584 13.1359 0.399704
56 1 -21.8773 13.1037 1.37579
57 1 -21.2812 13.4257 1.97334
58 1 -20.8073 13.6459 2.76784
59 1 -20.4111 14.5175 2.73271
60 1 -19.856 13.8978 3.23119
61 1 -19.8952 13.0177 3.05451
62 1 -19.393 12.2036 2.91101
63 1 -19.6212 11.2739 2.67576
64 1 -20.2868 10.6647 2.53355
65 1 -19.4069 10.2103 2.39885
66 1 -19.7464 9.52588 1.93152
67 1 -20.6851 9.44282 2.01447
68 1 -20.8293 8.73423 1.37907
69 1 -19.987 8.76046 0.971358
70 1 -19.1453 8.79228 0.545635
71 1 -18.3564 8.7074 0.0572595
72 1 -18.2457 7.77411 0.0883898
73 1 -17.992 6.83577 0.247076
74 1 -17.8367 6.91983 -0.723827
75 1 -18.2332 7.24906 -1.44396
76 1 -18.045 7.8148 -2.18754
77 1 -17.2088 7.8579 -1.71292
78 1 -16.8912 8.4357 -1.03076
79 1 -16.5985 9.26607 -1.22361
80 1 -15.7169 9.52694 -1.45242
81 1 -15.3825 9.57444 -0.579921
82 1 -14.8106 9.57417 0.166309
83 1 -14.3149 8.81079 -0.11289
84 1 -13.8495 9.26098 -0.758544
85 1 -14.0263 10.064 -0.255307
86 1 -14.0995 10.7269 0.467899
87 1 -14.9572 11.1061 0.513077
88 1 -14.2982 11.8056 0.415194
89 1 -14.1178 12.7004 0.678322
90 1 -14.5445 13.1532 1.35973
91 1 -14.7173 13.677 2.15473
92 1 -15.0914 14.0682 1.30107
93 1 -15.9664 14.2121 1.48027
94 1 -16.608 14.7448 0.976701
95 1 -16.1334 15.4967 0.706436
96 1 -15.9206 15.0819 -0.148186
97 1 -16.579 15.1007 -0.830072
98 1 -17.0665 14.4364 -0.298197
99 1 -16.3421 14.0319 -0.856748
100 1 -15.7693 13.3426 -0.567057
101 1 -16.2314 12.5315 -0.843154
102 1 -16.9932 12.944 -1.15158
103 1 -17.5051 13.2995 -1.84145
104 1 -18.3918 13.58 -2.07093
105 1 -17.956 14.1261 -2.69437
106 1 -17.6223 14.3705 -3.52549
107 1 -16.8314 14.6371 -3.10363
108 1 -16.0264 14.5405 -3.58949
109 1 -15.4458 15.2439 -3.66434
110 1 -14.5111 15.2775 -3.76626
111 1 -14.7707 14.9499 -2.94017
112 1 -14.6501 14.2253 -2.3446
113 1 -14.1938 13.6639 -2.87772
114 1 -14.4007 13.2577 -2.07341
115 1 -13.5235 12.9901 -1.95884
116 1 -12.7029 12.6164 -2.25572
117 1 -12.0828 12.5935 -3.01097
118 1 -11.2001 12.2182 -3.36478
119 1 -11.0597 12.1894 -4.27377
120 1 -11.5149 11.3148 -4.15588
121 1 -10.6841 11.2482 -3.74785
122 1 -10.6153 10.7722 -2.97142
123 1 -10.6732 9.95671 -2.54364
124 1 -11.4681 9.78859 -2.11714
125 1 -11.6743 10.1482 -2.93949
126 1 -12.0298 10.7841 -2.39716
127 1 -11.8383 10.6103 -1.52721
128 1 -11.5871 10.5074 -0.621547
129 1 -12.205 9.84889 -0.917951
130 1 -11.7547 9.39303 -0.227092
131 1 -12.4461 9.38652 0.412551
132 1 -12.8338 9.02031 1.16329
133 1 -12.5183 8.39057 1.78203
134 1 -13.0413 7.64027 1.51665
135 1 -12.2117 7.28504 1.33884
136 1 -12.9302 6.71334 1.01828
137 1 -13.6881 6.60482 1.55146
138 1 -14.2425 6.38066 2.33439
139 1 -13.5397 6.13112 2.9844
140 1 -12.786 6.57209 3.30482
141 1 -11.9069 6.20556 3.54303
142 1 -11.246 6.24965 4.21448
143 1 -10.9371 5.95261 5.08456
144 1 -10.933 5.03195 5.01582
145 1 -10.0016 5.31256 4.82398
146 1 -9.98989 4.65965 4.15213
147 1 -9.24539 4.21202 3.90633
148 1 -9.57623 3.54151 3.31271
149 1 -10.3079 3.53114 2.73906
150 1 -9.78296 3.31034 1.9283
151 1 -9.32879 3.47777 1.07953
152 1 -9.8726 4.18905 0.81867
153 1 -10.5198 3.51079 0.501207
154 1 -10.621 2.6088 0.187266
155 1 -9.85625 2.08046 0.00148474
156 1 -9.20985 2.17313 -0.714612
157 1 -8.90719 1.61009 -1.43736
158 1 -8.23491 1.12924 -1.94315
159 1 -8.98693 0.583032 -1.72777
160 1 -9.18623 -0.354616 -1.82981
161 1 -9.91669 -0.668964 -1.44826
162 1 -10.2964 -1.50237 -1.28394
163 1 -11.2324 -1.34472 -1.28521
164 1 -12.0212 -1.05027 -1.73874
165 1 -11.4843 -0.276301 -2.03708
166 1 -12.1102 -0.38358 -2.68676
167 1 -11.8832 -1.22758 -3.04694
168 1 -12.5869 -1.84485 -3.17704
169 1 -12.1548 -2.28072 -2.45807
170 1 -11.503 -2.92112 -2.62312
171 1 -12.0658 -3.71606 -2.67326
172 1 -12.4212 -4.03051 -1.84773
173 1 -12.8621 -3.51694 -1.14778
174 1 -13.3801 -3.84096 -1.84475
175 1 -13.8881 -3.38477 -2.43424
176 1 -14.6283 -3.95309 -2.63302
177 1 -15.3323 -4.45409 -2.2501
178 1 -15.8424 -3.86152 -1.77791
179 1 -16.0416 -3.4888 -0.892586
180 1 -15.8349 -2.64513 -1.15434
181 1 -15.3001 -2.29965 -0.466515
182 1 -14.4647 -1.95815 -0.147761
183 1 -13.5404 -1.72558 -0.300201
184 1 -13.8845 -0.909642 -0.830188
185 1 -14.701 -0.699184 -1.28681
186 1 -15.1297 -1.54878 -1.21588
187 1 -15.963 -1.22757 -1.43305
188 1 -16.8341 -1.20978 -1.80995
189 1 -17.744 -1.5166 -1.62176
190 1 -17.7044 -2.17063 -0.984055
191 1 -17.775 -2.74712 -0.273445
192 1 -18.0476 -3.56615 -0.650199
193 1 -17.7955 -4.32964 -0.0609123
194 1 -17.2597 -4.78907 0.587034
195 1 -16.4713 -5.09455 0.965892
196 1 -16.5149 -4.19701 1.05494
197 1 -16.6973 -3.3853 1.52544
198 1 -16.6378 -2.48125 1.36157
199 1 -16.2573 -2.44089 2.21055
200 1 -16.8067 -2.05402 2.90236
201 1 -17.2359 -2.73426 3.36588
202 1 -17.5761 -3.53084 3.77286
203 1 -17.8435 -3.28107 4.62016
204 1 -17.8577 -2.42178 5.00111
205 1 -18.7694 -2.3276 4.91285
206 1 -19.1336 -2.54311 5.74943
207 1 -19.2089 -3.44175 5.4779
208 1 -19.6146 -3.40097 4.63949
209 1 -19.9006 -2.80379 3.9516
210 1 -20.5331 -3.22164 3.34714
211 1 -21.2301 -3.16093 3.98439
212 1 -21.0573 -3.9939 4.40847
213 1 -20.3548 -4.55252 4.71745
214 1 -19.9685 -5.44218 4.83035
215 1 -20.0192 -5.44611 3.88189
216 1 -19.8286 -5.99357 3.10768
217 1 -20.753 -5.76373 2.65635
218 1 -20.1105 -5.05773 2.71955
219 1 -19.8201 -4.42731 2.12754
220 1 -19.5947 -4.54787 1.19672
221 1 -19.3216 -3.8933 0.569349
222 1 -19.6123 -4.15341 -0.309545
223 1 -19.2472 -3.8016 -1.18096
224 1 -19.3872 -2.93421 -0.905399
225 1 -20.1469 -2.80255 -1.44487
226 1 -19.578 -2.03247 -1.57851
227 1 -19.6077 -1.66489 -2.43517
228 1 -19.3515 -1.87709 -3.2905
229 1 -18.5474 -1.54879 -3.49883
230 1 -19.1044 -0.826775 -3.80885
231 1 -19.297 -1.11612 -4.70435
232 1 -18.361 -0.818271 -4.71124
233 1 -18.7242 -0.0197238 -4.43501
234 1 -19.2473 0.66229 -4.25452
235 1 -18.9306 1.04208 -5.02267
236 1 -18.0144 0.835507 -5.23799
237 1 -17.6426 0.779181 -6.13346
238 1 -16.8244 0.34712 -6.04524
239 1 -16.7898 -0.583639 -6.16931
240 1 -16.9969 -1.37433 -5.67002
241 1 -16.4631 -2.09618 -5.87074
242 1 -15.5935 -2.04579 -5.54566
243 1 -15.0471 -2.6568 -6.03905
244 1 -14.4642 -2.20539 -5.5111
245 1 -14.8692 -2.59343 -4.81522
246 1 -14.8461 -3.54292 -4.68653
247 1 -15.3734 -3.96686 -4.04799
248 1 -15.3249 -4.45267 -4.86368
249 1 -14.5195 -4.73452 -4.57901
250 1 -14.9034 -4.92479 -3.71771
251 1 -13.9909 -4.94202 -3.34534
252 1 -13.3972 -4.34554 -2.97779
253 1 -13.0025 -3.57025 -3.30976
254 1 -13.2064 -3.22066 -4.18482
255 1 -12.6153 -3.86139 -4.61043
256 1 -13.2378 -3.98635 -5.27641
ITEM: TIMESTEP
1310000
ITEM: NUMBER OF ATOMS
256
ITEM: BOX BOUNDS mm mm mm
-1.2800000000000000e+02 1.2800000000000000e+02
-1.2800000000000000e+02 1.2800000000000000e+02
-1.2800000000000000e+02 1.2800000000000000e+02
ITEM: ATOMS id type x y z
1 1 -20.3015 22.9522 -4.64581
2 1 -20.5615 22.3553 -3.9779
3 1 -21.2279 21.6526 -3.99328
4 1 -21.8352 22.2945 -4.39222
5 1 -22.6766 21.9645 -4.05695
6 1 -22.7126 22.565 -3.35025
7 1 -22.5791 23.5479 -3.53477
8 1 -21.6915 23.438 -3.64567
9 1 -21.1036 23.2412 -2.92639
10 1 -20.5152 23.2781 -2.1878
11 1 -20.2599 22.9741 -1.31852
12 1 -20.1421 22.3651 -0.583867
13 1 -20.8285 21.8032 -0.809653
14 1 -21.7876 21.8732 -0.679433
15 1 -22.7033 22.1557 -0.523274
16 1 -22.6067 22.2177 0.376712
17 1 -23.5058 21.9688 0.509725
18 1 -24.2232 21.4103 0.879372
19 1 -25.1599 21.5055 0.813617
20 1 -25.9932 21.1443 0.961225
21 1 -26.5417 20.5665 1.35959
22 1 -27.2667 19.9934 1.25784
23 1 -28.063 19.4227 1.54256
24 1 -28.133 20.2883 2.01009
25 1 -28.4182 20.2687 2.86659
26 1 -28.9701 19.8541 3.45857
27 1 -29.3532 19.029 3.13321
28 1 -28.7358 18.6448 3.75448
29 1 -28.2954 18.7163 4.59502
30 1 -28.7837 18.9906 5.31338
31 1 -29.1018 18.8128 6.17894
32 1 -28.8196 17.8985 6.05848
33 1 -28.1531 18.3081 5.56327
34 1 -27.3739 18.8423 5.40374
35 1 -26.5356 19.0545 5.80473
36 1 -26.5082 19.7467 5.17177
37 1 -26.0238 19.5136 4.39022
38 1 -26.373 19.1991 3.6185
39 1 -25.8496 18.3707 3.52118
40 1 -25.5877 17.5058 3.68996
41 1 -24.7123 17.5264 4.22273
42 1 -24.1829 18.258 3.82765
43 1 -23.5226 17.8151 4.33495
44 1 -22.9702 17.5563 3.66704
45 1 -23.1903 16.7196 4.01742
46 1 -22.5888 16.5757 4.68985
47 1 -21.673 16.6433 4.77538
48 1 -21.4978 15.6777 4.78962
49 1 -22.0444 14.9224 4.9654
50 1 -21.9527 14.2478 5.63882
51 1 -21.5574 13.4182 5.71738
52 1 -20.7421 13.3682 6.12179
53 1 -21.1097 12.5141 6.45389
54 1 -20.4388 12.6174 7.08092
55 1 -19.5623 12.8774 6.85212
56 1 -18.6481 12.8098 7.0464
57 1 -17.8757 12.4453 6.60571
58 1 -17.774 11.9205 5.83614
59 1 -17.5553 11.2571 6.4827
60 1 -16.8001 10.9651 6.02284
61 1 -17.2815 10.6264 5.3211
62 1 -16.7745 10.4355 4.46342
63 1 -16.3103 9.84503 5.01958
64 1 -17.1352 9.44126 5.086
65 1 -17.7078 8.75931 5.24821
66 1 -18.4431 9.33595 5.42092
67 1 -19.1733 9.95459 5.44405
68 1 -18.9863 10.3378 4.60399
69 1 -18.9379 9.75114 3.87376
70 1 -19.724 9.75823 3.39625
71 1 -20.0173 10.204 2.57926
72 1 -19.9806 10.0095 1.62827
73 1 -20.5949 10.1638 0.919809
74 1 -20.2349 9.33122 0.654822
75 1 -20.2664 9.09128 -0.234959
76 1 -20.4595 8.75662 -1.11622
77 1 -19.9733 9.58394 -1.17729
78 1 -20.2027 10.2659 -0.564623
79 1 -19.8352 10.793 0.125572
80 1 -20.2295 11.4898 0.605367
81 1 -19.9761 12.4039 0.792257
82 1 -19.7767 13.3103 0.946082
83 1 -20.5099 13.7615 0.632437
84 1 -21.0569 14.1791 -0.0532312
85 1 -21.7518 14.7884 -0.286747
86 1 -21.4711 15.669 -0.0499656
87 1 -20.7576 16.0551 -0.45125
88 1 -20.5396 16.4378 -1.33161
89 1 -20.9113 17.0588 -1.87236
90 1 -20.2199 17.5224 -1.39094
91 1 -19.4747 18.0688 -1.53854
92 1 -19.4782 18.4419 -0.70168
93 1 -19.7142 19.2298 -1.14693
94 1 -19.4052 19.8439 -1.81376
95 1 -18.7855 20.2961 -2.35174
96 1 -18.3251 20.0754 -3.15428
97 1 -17.4845 19.9056 -2.71379
98 1 -17.8802 19.1821 -2.1385
99 1 -17.6945 18.5937 -2.78624
100 1 -17.1565 18.5831 -3.55017
101 1 -17.6429 17.9236 -3.98205
102 1 -17.6676 17.1163 -3.48073
103 1 -18.5065 17.1752 -4.00669
104 1 -18.6489 17.0366 -4.96873
105 1 -18.0206 16.31 -4.99921
106 1 -18.0431 15.4346 -5.31633
107 1 -17.2798 14.9714 -5.55744
108 1 -16.8449 15.4948 -4.9247
109 1 -16.5155 14.6287 -4.89185
110 1 -16.114 13.9987 -4.34159
111 1 -15.4265 13.9469 -3.71941
112 1 -15.1825 13.5734 -2.93737
113 1 -14.6158 13.1582 -3.53538
114 1 -15.3119 12.5728 -3.39994
115 1 -14.6837 12.0962 -3.97035
116 1 -14.0787 11.4933 -4.39221
117 1 -13.7657 10.8247 -4.98575
118 1 -13.0158 11.1004 -4.5103
119 1 -12.7371 11.8382 -3.93761
120 1 -12.4813 11.7705 -3.03894
121 1 -12.4823 12.6721 -3.1978
122 1 -12.9289 13.161 -2.47565
123 1 -12.7195 13.5018 -1.66156
124 1 -13.034 12.7328 -1.16253
125 1 -13.8742 12.4974 -1.09799
126 1 -14.0091 11.6797 -0.767334
127 1 -13.081 11.6874 -0.481033
128 1 -12.5709 10.9229 -0.741231
129 1 -11.7804 10.7845 -0.274267
130 1 -11.3846 10.0663 0.179258
131 1 -11.0776 10.7896 0.695004
132 1 -10.7195 11.354 1.41771
133 1 -11.2653 10.8926 1.99165
134 1 -11.9572 10.8188 2.55184
135 1 -11.4879 11.4246 3.08096
136 1 -11.1169 11.4984 3.95237
137 1 -11.5795 12.2959 3.61679
138 1 -12.5694 12.4968 3.58356
139 1 -12.2766 12.9685 4.33139
140 1 -12.603 13.3783 5.12514
141 1 -13.165 12.6016 4.96834
142 1 -13.2267 11.63 5.07982
143 1 -13.8683 10.9383 5.02841
144 1 -13.5436 10.0698 4.93669
145 1 -12.9894 9.47034 5.44691
146 1 -12.1466 9.0431 5.43914
147 1 -12.598 8.2365 5.32883
148 1 -12.3028 7.41787 4.94805
149 1 -11.8934 6.5205 5.17927
150 1 -10.9734 6.65348 5.43362
151 1 -10.3928 6.28077 4.67988
152 1 -11.0583 6.25705 4.0042
153 1 -11.7747 6.03344 3.42518
154 1 -11.6171 5.91547 2.46492
155 1 -11.4801 5.22899 1.82618
156 1 -11.0924 5.25441 0.97576
157 1 -10.8108 6.10653 0.741028
158 1 -10.7408 6.23204 -0.203264
159 1 -11.4188 5.78622 -0.665675
160 1 -11.7727 5.27366 -1.34025
161 1 -12.3756 4.55664 -1.30276
162 1 -12.5071 3.84678 -0.760605
163 1 -13.1857 3.29926 -0.436777
164 1 -13.8957 3.2024 0.165828