ITEM: TIMESTEP
1540000
ITEM: NUMBER OF ATOMS
256
ITEM: BOX BOUNDS mm mm mm
-1.2800000000000000e+02 1.2800000000000000e+02
-1.2800000000000000e+02 1.2800000000000000e+02
-1.2800000000000000e+02 1.2800000000000000e+02
ITEM: ATOMS id type x y z
1 1 -33.718 3.12254 -1.75696
2 1 -32.9375 2.56888 -1.38508
3 1 -32.8003 1.8812 -0.725483
4 1 -32.9592 1.28811 -0.0175355
5 1 -33.6427 0.724133 0.292331
6 1 -33.7249 0.1521 1.01892
7 1 -34.5986 -0.0345067 1.25214
8 1 -35.212 -0.696146 1.23652
9 1 -35.0868 -0.910788 2.09205
10 1 -34.3937 -1.51884 2.43062
11 1 -34.3031 -0.722411 2.85859
12 1 -34.8336 0.0526346 2.64396
13 1 -34.434 0.983389 2.37361
14 1 -33.6664 1.1709 1.88502
15 1 -33.1667 2.00765 1.97509
16 1 -33.2231 2.98176 2.07109
17 1 -32.8103 3.08212 2.89705
18 1 -32.311 3.84702 2.78929
19 1 -32.9354 4.14336 2.25903
20 1 -33.0999 5.00895 2.14806
21 1 -32.8468 5.30381 1.34293
22 1 -33.1797 5.88959 0.659698
23 1 -33.9904 5.58424 1.07405
24 1 -34.1847 6.44963 1.30184
25 1 -35.043 6.64028 0.974952
26 1 -35.6178 7.37479 1.1518
27 1 -34.9759 7.50785 1.84515
28 1 -34.6844 8.43435 1.90139
29 1 -34.4874 9.35204 1.86477
30 1 -33.7721 9.38311 1.3247
31 1 -32.9259 9.49678 1.038
32 1 -32.7512 8.61426 0.916573
33 1 -31.8797 8.3729 1.13313
34 1 -30.9105 8.57977 1.0229
35 1 -30.2091 9.09077 0.516964
36 1 -29.6484 9.83835 0.313472
37 1 -28.7524 9.69457 0.152479
38 1 -27.7963 9.80662 0.153142
39 1 -27.2209 9.31282 0.791325
40 1 -26.6512 8.72178 1.20952
41 1 -25.9373 9.16861 0.78837
42 1 -25.0661 9.30691 0.426918
43 1 -25.1621 8.46117 -0.0378712
44 1 -24.4689 7.82117 -0.000398978
45 1 -24.254 7.3369 -0.765335
46 1 -24.6557 6.52286 -0.595883
47 1 -24.4031 6.27926 0.265891
48 1 -23.8901 6.83027 0.853954
49 1 -23.3729 6.14609 1.25873
50 1 -22.628 5.86802 1.82129
51 1 -22.0832 5.54603 2.51255
52 1 -21.4047 5.14921 1.98473
53 1 -20.882 5.97347 1.77188
54 1 -20.6951 6.21368 0.851405
55 1 -20.1425 5.9943 0.139902
56 1 -19.3807 5.62306 0.591251
57 1 -19.2084 5.2557 -0.306361
58 1 -19.7534 4.68549 -0.843337
59 1 -20.3806 5.151 -1.36354
60 1 -20.0562 6.06616 -1.42689
61 1 -20.2503 6.48943 -2.2648
62 1 -19.7231 6.23183 -3.04664
63 1 -19.0066 6.29771 -3.67269
64 1 -19.4641 5.79391 -4.3306
65 1 -19.5482 4.84443 -4.24757
66 1 -20.2975 4.45482 -3.87182
67 1 -21.0433 4.96105 -4.25145
68 1 -21.9542 5.0621 -4.37578
69 1 -22.5859 5.54418 -4.99639
70 1 -23.2911 5.75568 -4.37628
71 1 -24.0508 6.24484 -4.34451
72 1 -24.2585 6.7674 -5.13818
73 1 -23.3098 6.66717 -5.00399
74 1 -22.6328 7.02627 -4.30455
75 1 -23.1561 7.63579 -3.83702
76 1 -22.4858 7.95593 -4.47748
77 1 -22.3786 8.22611 -3.61269
78 1 -21.6992 8.9005 -3.34439
79 1 -21.8607 9.69746 -2.81005
80 1 -20.9936 9.37184 -2.85431
81 1 -21.1597 9.65546 -1.98532
82 1 -20.494 9.27619 -1.30646
83 1 -19.7251 9.73704 -1.51469
84 1 -19.1335 10.4169 -1.09715
85 1 -19.8517 10.837 -0.699207
86 1 -20.0406 10.4932 0.171556
87 1 -19.2653 10.164 0.532296
88 1 -18.38 10.5025 0.63943
89 1 -18.0297 9.64156 0.453773
90 1 -17.1848 9.16169 0.524061
91 1 -16.9945 9.59424 -0.264723
92 1 -17.7824 9.48959 -0.764685
93 1 -17.8703 9.32067 -1.69211
94 1 -18.2686 8.61446 -1.25877
95 1 -17.7138 8.01315 -0.802885
96 1 -18.0121 7.92592 0.140714
97 1 -18.9186 8.18581 0.408216
98 1 -18.9462 7.95026 1.35232
99 1 -19.2632 8.20133 2.27846
100 1 -19.3513 9.06021 2.5706
101 1 -20.1988 9.00531 2.22422
102 1 -20.8606 8.68838 2.85919
103 1 -20.8078 9.60765 2.98758
104 1 -20.4416 9.42377 3.83844
105 1 -20.2603 9.43235 4.75943
106 1 -19.9171 8.70665 5.38529
107 1 -19.5212 8.80053 6.22341
108 1 -19.142 8.17093 6.81128
109 1 -18.422 8.68641 6.7492
110 1 -18.3208 9.19898 5.99442
111 1 -17.8521 9.94807 5.75183
112 1 -17.1006 9.68153 6.24998
113 1 -16.3945 10.2693 6.03553
114 1 -15.7772 9.58064 6.18813
115 1 -15.5507 8.72275 6.35675
116 1 -16.2844 8.44548 5.83995
117 1 -16.8156 7.89407 6.37601
118 1 -16.9074 7.91419 7.30181
119 1 -16.9382 7.39546 8.10257
120 1 -16.3594 6.83584 7.56326
121 1 -15.6392 7.11928 8.07305
122 1 -15.6608 7.75682 8.82954
123 1 -15.8467 8.40458 9.50517
124 1 -15.0153 8.0744 9.75332
125 1 -14.0992 8.00447 9.93039
126 1 -14.3274 8.57006 10.552
127 1 -13.994 9.26364 11.0994
128 1 -13.4841 9.85994 11.6334
129 1 -12.6308 9.71759 11.2112
130 1 -11.756 9.81528 10.8556
131 1 -11.4401 8.93641 10.8974
132 1 -10.5946 8.66154 11.1196
133 1 -10.2869 8.79926 10.1985
134 1 -9.82371 8.81234 9.40711
135 1 -9.36832 8.70759 8.56297
136 1 -9.17631 9.27466 7.83356
137 1 -9.98024 9.38899 7.3485
138 1 -9.45768 10.1298 7.0834
139 1 -9.1396 9.65035 6.33229
140 1 -9.72996 10.0938 5.66811
141 1 -10.5774 10.1551 5.27129
142 1 -10.8851 9.53884 4.59931
143 1 -10.3497 10.0529 4.00585
144 1 -9.86332 10.5919 3.40931
145 1 -9.46136 11.368 3.74693
146 1 -8.71313 11.5604 3.20686
147 1 -8.34847 11.5969 2.30311
148 1 -8.22605 12.4625 1.82693
149 1 -7.67334 13.1371 1.40562
150 1 -6.80529 13.2979 0.991358
151 1 -6.38711 13.9721 0.454665
152 1 -6.36129 13.9054 -0.445951
153 1 -6.72732 13.7713 -1.28338
154 1 -7.03775 13.5974 -2.14736
155 1 -6.5504 13.3924 -2.87556
156 1 -5.70527 13.0621 -3.27026
157 1 -4.96476 13.1383 -2.67828
158 1 -5.56133 12.471 -2.40045
159 1 -6.21814 11.8489 -2.39889
160 1 -7.03057 11.3663 -2.49508
161 1 -7.01092 10.493 -1.97388
162 1 -7.57361 10.7807 -1.14901
163 1 -7.91211 9.97588 -0.694571
164 1 -8.56907 10.3462 -0.219472
165 1 -8.73925 10.8742 0.532131
166 1 -9.39973 11.1422 1.17604
167 1 -9.24557 10.474 1.83227
168 1 -9.53595 9.82439 2.42889
169 1 -8.62857 9.70135 2.57498
170 1 -7.71868 9.85981 2.41499
171 1 -6.86109 9.57947 2.10953
172 1 -7.13166 8.66821 2.17005
173 1 -6.40108 8.26096 2.57312
174 1 -6.33212 7.34232 2.74641
175 1 -5.89515 7.45032 3.62269
176 1 -5.00449 7.63433 3.8006
177 1 -4.76699 8.00943 2.97131
178 1 -3.85259 8.13806 3.22868
179 1 -3.20977 8.04905 3.95446
180 1 -2.98633 7.15443 3.83886
181 1 -2.79851 6.32957 3.34744
182 1 -2.77773 5.82 2.54673
183 1 -2.13377 6.33991 2.08044
184 1 -1.24312 6.17364 2.26447
185 1 -0.648479 6.37779 1.56946
186 1 -0.27173 5.71604 2.0513
187 1 0.464208 5.8433 1.434
188 1 1.19214 5.32021 1.17869
189 1 2.10109 5.47739 0.869806
190 1 2.35997 6.37037 0.636992
191 1 2.68241 6.84733 1.36137
192 1 3.35837 7.39731 1.75859
193 1 4.06595 7.99486 1.8626
194 1 3.58905 7.83976 2.79373
195 1 3.44671 7.32684 3.57574
196 1 3.65572 7.48471 4.51209
197 1 3.01094 7.25473 5.16046
198 1 2.8845 6.88879 6.00822
199 1 2.9122 7.76482 6.34874
200 1 3.5533 8.46789 6.26577
201 1 4.46196 8.74882 6.04475
202 1 4.56738 9.23838 6.82641
203 1 4.78631 9.7683 7.59596
204 1 4.57101 10.5968 7.17211
205 1 3.91607 10.5019 6.50476
206 1 3.02547 10.7125 6.29487
207 1 2.05587 10.8234 6.3233
208 1 1.17496 10.8091 6.53873
209 1 1.23268 11.4371 7.20392
210 1 2.03641 11.4035 7.77893
211 1 1.24536 11.5495 8.32075
212 1 1.86663 11.863 8.90774
213 1 2.23473 11.9486 9.77331
214 1 2.60278 11.0752 9.6482
215 1 2.05778 10.3129 9.66718
216 1 2.46904 9.50615 9.80128
217 1 3.37478 9.1476 9.94989
218 1 3.32692 9.11206 10.9507
219 1 3.71443 9.92762 10.7804
220 1 4.18525 10.7871 10.9013
221 1 4.74205 11.3419 10.3479
222 1 4.30379 12.0538 9.95821
223 1 4.48283 12.8764 9.72276
224 1 3.74027 12.7893 9.12732
225 1 2.88833 13.0759 8.7546
226 1 2.10773 12.858 8.31104
227 1 1.69489 12.9233 9.18524
228 1 0.863415 13.065 9.60671
229 1 0.526076 13.8515 9.25808
230 1 0.810482 14.5735 9.71167
231 1 0.528662 15.4676 9.57412
232 1 0.525667 15.3783 10.5028
233 1 0.243183 14.9064 11.2638
234 1 0.870945 15.1396 11.9179
235 1 1.67965 14.8989 12.2675
236 1 1.28255 14.0286 12.0303
237 1 1.71156 13.1004 11.7752
238 1 1.16535 12.7357 12.4305
239 1 0.344919 12.331 12.0145
240 1 -0.524402 12.6476 12.1935
241 1 -0.778289 12.3253 13.0854
242 1 -0.606475 11.7477 13.8119
243 1 0.291958 12.0694 13.6814
244 1 0.757473 12.1244 14.4599
245 1 0.53651 12.7298 15.1655
246 1 0.262465 13.5189 15.5942
247 1 -0.275798 14.173 15.9493
248 1 -0.32327 14.4557 15.0393
249 1 -0.342727 14.8353 14.1779
250 1 0.396798 15.3443 14.203
251 1 0.0845275 15.6221 13.3109
252 1 -0.507436 16.3193 13.4766
253 1 -0.306491 17.1246 13.0824
254 1 -0.917095 17.7956 13.4616
255 1 -0.551586 18.0868 14.2584
256 1 -0.837078 18.8224 14.8814
ITEM: TIMESTEP
1550000
ITEM: NUMBER OF ATOMS
256
ITEM: BOX BOUNDS mm mm mm
-1.2800000000000000e+02 1.2800000000000000e+02
-1.2800000000000000e+02 1.2800000000000000e+02
-1.2800000000000000e+02 1.2800000000000000e+02
ITEM: ATOMS id type x y z
1 1 -35.5732 -0.747232 -0.35865
2 1 -34.6355 -0.796357 -0.52144
3 1 -34.1881 -1.43197 -1.05807
4 1 -33.3771 -1.37083 -1.56803
5 1 -32.8946 -1.61446 -2.35541
6 1 -33.1 -2.54564 -2.62243
7 1 -33.5876 -3.08096 -2.04507
8 1 -33.8878 -3.94242 -1.78658
9 1 -34.3165 -3.53797 -1.0003
10 1 -34.1381 -2.5718 -0.830604
11 1 -33.5398 -2.18646 -0.240747
12 1 -33.1747 -2.46393 0.555106
13 1 -32.3359 -1.96898 0.699082
14 1 -32.3535 -1.06419 0.839103
15 1 -31.9165 -0.436684 0.336811
16 1 -32.4721 -0.392893 -0.430857
17 1 -32.2314 -0.537264 -1.35965
18 1 -32.1837 -0.606602 -2.28375
19 1 -31.5884 -0.270275 -3.04692
20 1 -30.8254 -0.868999 -2.83359
21 1 -30.8425 0.053075 -2.44113
22 1 -31.4845 0.712519 -2.61127
23 1 -31.054 1.22184 -1.98137
24 1 -30.9563 1.02475 -0.954027
25 1 -30.2255 0.533744 -0.642861
26 1 -29.7069 0.63531 0.142617
27 1 -29.3077 -0.211114 0.0741815
28 1 -29.2043 -0.48059 0.976312
29 1 -28.8686 -0.630658 1.87986
30 1 -29.1088 -0.28516 2.69508
31 1 -29.1042 0.342523 2.01395
32 1 -28.1863 0.371133 2.16581
33 1 -27.4985 0.965543 2.45564
34 1 -27.5897 1.87878 2.25529
35 1 -27.5153 2.843 2.21172
36 1 -27.9796 3.5796 2.56366
37 1 -28.6955 4.16641 2.24951
38 1 -28.7691 4.95804 1.65703
39 1 -28.4576 4.70968 0.796381
40 1 -28.4637 5.01641 -0.0908378
41 1 -28.3628 4.06501 -0.0813937
42 1 -28.3649 3.40092 -0.77836
43 1 -28.2132 2.4965 -0.881044
44 1 -27.8499 2.44484 0.0291721
45 1 -27.0769 2.28141 -0.519102
46 1 -26.2563 1.97106 -0.942737
47 1 -26.7799 1.90207 -1.77584
48 1 -27.173 2.28852 -2.52849
49 1 -27.5204 3.18693 -2.82196
50 1 -26.9147 3.81856 -2.45331
51 1 -26.0082 3.78739 -1.98804
52 1 -25.8206 4.69465 -1.69703
53 1 -24.8927 4.71017 -1.69422
54 1 -24.0462 5.04933 -1.97669
55 1 -24.1789 5.96597 -1.98287
56 1 -23.3798 6.32819 -2.28743
57 1 -22.3915 6.08824 -2.27964
58 1 -21.8775 6.17769 -3.11592
59 1 -21.221 5.56922 -2.96588
60 1 -20.7895 5.63009 -3.85938
61 1 -20.5631 4.71172 -3.79789
62 1 -20.5464 4.07483 -4.51135
63 1 -20.9819 3.63384 -5.25228
64 1 -20.8573 4.44581 -5.69225
65 1 -19.8841 4.39373 -5.61243
66 1 -19.5366 5.26308 -5.69068
67 1 -20.4065 5.56571 -5.68877
68 1 -21.2499 5.76878 -6.16212
69 1 -20.5368 6.36631 -6.28853
70 1 -20.3279 6.94882 -7.08689
71 1 -19.9961 7.71942 -6.6093
72 1 -19.9661 8.585 -6.26282
73 1 -20.4804 9.25948 -6.61887
74 1 -21.0286 10.0733 -6.64663
75 1 -21.74 10.0168 -5.93805
76 1 -21.4998 10.4843 -5.2186
77 1 -22.092 10.8442 -4.58319
78 1 -21.3355 10.5022 -4.14489
79 1 -21.6138 9.58962 -4.06193
80 1 -20.8093 9.19005 -3.65132
81 1 -20.2542 9.73413 -4.09621
82 1 -19.6843 9.98729 -4.72692
83 1 -19.4295 10.5011 -3.99409
84 1 -19.2567 10.715 -3.12475
85 1 -18.5488 10.7593 -2.51659
86 1 -18.4985 11.3453 -1.82564
87 1 -17.7512 11.6603 -2.32446
88 1 -17.3699 12.4378 -2.63298
89 1 -18.1711 12.6983 -3.01668
90 1 -18.6902 13.3459 -3.35945
91 1 -18.262 14.1231 -3.41567
92 1 -17.3735 13.7686 -3.22115
93 1 -16.7574 14.5296 -3.37099
94 1 -16.0821 13.8538 -3.17636
95 1 -15.5192 14.5301 -3.21354
96 1 -14.9786 15.282 -3.03304
97 1 -14.322 15.6731 -2.4444
98 1 -14.2081 14.8699 -1.99625
99 1 -14.5193 14.8828 -1.06607
100 1 -13.9277 14.1231 -0.87022
101 1 -14.6169 13.5007 -0.621029
102 1 -14.9682 13.7978 0.196045
103 1 -15.2413 14.0084 1.08991
104 1 -15.5455 14.5879 1.80547
105 1 -14.6568 14.7051 2.07199
106 1 -14.3499 14.1425 2.70341
107 1 -14.7733 13.8347 3.46772
108 1 -14.6724 13.005 2.98956
109 1 -15.1625 12.1374 2.88353
110 1 -14.9048 11.4002 2.37743
111 1 -14.6629 10.5677 2.6636
112 1 -13.9072 10.6179 2.1138
113 1 -13.6357 9.72144 2.01941
114 1 -14.1315 9.6082 2.8145
115 1 -14.8244 9.58397 3.41446
116 1 -14.5617 8.73021 3.79967
117 1 -14.86 7.77189 3.8318
118 1 -14.0941 7.39508 4.26897
119 1 -13.6665 7.83507 5.04347
120 1 -13.7448 7.5309 5.99843
121 1 -13.4463 7.90113 6.77469
122 1 -13.1883 7.55968 7.65335
123 1 -13.0878 7.41508 8.58202
124 1 -13.1846 7.77521 9.45861
125 1 -13.0256 8.66186 9.783
126 1 -13.7683 9.23667 9.7027
127 1 -13.5868 10.1572 9.75884
128 1 -13.617 10.5111 8.89141
129 1 -13.3432 10.1953 8.05349
130 1 -13.0484 9.33328 7.99826
131 1 -12.9405 9.38286 7.01306
132 1 -11.9901 9.37893 7.40412
133 1 -11.5611 10.1224 7.61274
134 1 -10.7685 10.3707 7.12019
135 1 -10.8513 11.0049 6.47963
136 1 -11.7578 11.3184 6.63782
137 1 -11.4417 11.8073 7.31196
138 1 -10.5225 11.885 7.45371
139 1 -10.3013 12.4963 8.13673
140 1 -9.66089 12.4227 7.48843
141 1 -9.40922 12.0047 6.67977
142 1 -8.9289 12.4951 6.12062
143 1 -8.44341 12.982 6.71796
144 1 -7.85424 12.3377 7.06048
145 1 -7.57694 11.4657 6.70173
146 1 -6.84664 11.1119 6.23824
147 1 -6.5392 11.9574 5.99546
148 1 -6.89042 12.4242 5.29785
149 1 -6.38103 12.6476 4.62693
150 1 -6.57046 13.0737 3.78992
151 1 -6.69742 12.9329 2.82729
152 1 -6.32337 12.3757 2.19598
153 1 -5.50567 12.0266 1.82916
154 1 -4.87253 12.633 1.50573
155 1 -4.663 12.5197 0.621955
156 1 -5.30892 12.2761 0.00468163
157 1 -5.37087 11.6548 -0.687785
158 1 -4.48526 11.2517 -0.740659
159 1 -4.01837 10.8177 -0.0546134
160 1 -3.56943 10.516 -0.805949
161 1 -2.7859 9.99617 -1.24697
162 1 -2.21133 9.45629 -0.811775
163 1 -2.20298 8.72193 -1.30601
164 1 -2.34232 7.85366 -1.04421
165 1 -2.52564 7.10125 -0.484577
166 1 -2.30836 6.24299 -0.359049
167 1 -2.73999 5.3657 -0.180725
168 1 -1.97139 5.05022 -0.713339
169 1 -1.58645 5.84294 -1.1247
170 1 -0.874318 5.32731 -0.792234
171 1 -0.651765 4.99636 0.0467348
172 1 -1.19142 4.66373 0.690434
173 1 -1.75208 4.12585 1.26033
174 1 -0.911596 3.92738 1.65019
175 1 -0.0469217 3.56399 1.64059
176 1 0.38611 2.76687 1.9307
177 1 0.346972 3.14927 2.77312
178 1 0.920993 2.85918 3.44884
179 1 1.13368 2.60994 4.30762
180 1 0.730482 2.82734 5.17411
181 1 -0.177926 3.06604 4.79752
182 1 -0.418473 4.04173 4.64693
183 1 0.414978 4.28319 4.95858
184 1 1.29474 4.08278 5.12605
185 1 1.26667 4.88714 5.64493
186 1 1.51016 5.65315 5.13245
187 1 2.13658 5.58806 4.41065
188 1 2.10101 4.62034 4.38641
189 1 3.0338 4.4341 4.18969
190 1 2.99239 4.20716 5.11866
191 1 2.67199 5.06147 5.32792
192 1 2.81421 5.99134 5.49434
193 1 3.42413 6.63198 5.94185
194 1 4.21495 7.12429 6.18062
195 1 4.2696 7.04643 7.07245
196 1 3.72515 7.78396 7.09834
197 1 4.12985 8.30503 6.43049
198 1 4.9527 8.7931 6.72318
199 1 5.42933 9.46233 7.09918
200 1 5.10042 10.2683 7.20678
201 1 4.95619 10.7099 6.41634
202 1 4.74838 11.4316 7.10016
203 1 4.23094 11.209 7.8541
204 1 3.44162 11.5654 7.59652
205 1 3.6864 12.3219 8.03917
206 1 3.58882 13.3219 8.06124
207 1 4.47183 13.5737 8.21975
208 1 5.3156 13.5532 8.51961
209 1 5.60202 13.4635 9.42342
210 1 5.63145 14.1847 10.1043
211 1 6.13213 13.4865 10.5329
212 1 6.75061 13.1395 11.1309
213 1 6.15741 13.7757 11.5995
214 1 5.71945 14.5164 11.2781
215 1 4.84069 14.5409 11.488
216 1 4.69267 15.4152 11.9087
217 1 4.85112 15.6901 11.0096
218 1 3.936 15.8321 11.1121
219 1 3.39809 16.0067 11.8619
220 1 2.59579 16.3932 12.0501
221 1 2.43449 17.2017 12.5994
222 1 2.32094 18.0965 12.9065
223 1 1.9528 18.8477 12.3783
224 1 1.09692 18.4037 12.4002
225 1 0.319454 17.9861 12.2642
226 1 0.167999 17.26 11.7257
227 1 0.271283 17.6476 10.8769
228 1 -0.398215 16.9142 10.6249
229 1 -0.0893611 16.2235 11.1271
230 1 -0.922442 15.7912 11.0362
231 1 -1.20094 14.8273 10.9586
232 1 -1.08721 13.9281 10.7558
233 1 -1.14947 13.1601 11.2878
234 1 -1.38825 12.7269 12.0774
235 1 -1.77638 12.7514 12.9603
236 1 -1.55765 13.4859 13.4786
237 1 -1.94294 14.2533 13.7056
238 1 -2.80667 14.7204 13.7808
239 1 -3.04122 15.3199 13.1032
240 1 -3.88945 15.2791 12.7753
241 1 -4.17992 15.6831 13.6827
242 1 -5.02309 15.4815 13.366
243 1 -5.04146 16.0044 12.5741
244 1 -4.93863 16.7864 12.0154
245 1 -4.61805 16.3384 11.2928
246 1 -4.49681 17.0915 10.7996
247 1 -3.77719 17.3645 11.4301
248 1 -3.67103 17.6246 12.3527
249 1 -2.75941 17.778 12.7176
250 1 -2.08348 18.3275 13.0362
251 1 -1.93042 18.8527 12.2691
252 1 -1.28328 19.2713 11.6374
253 1 -1.3786 19.5179 10.7495
254 1 -2.13258 19.8226 10.3731
255 1 -2.75253 20.4534 10.6078
256 1 -2.54377 20.0525 11.4355
ITEM: TIMESTEP
1560000
ITEM: NUMBER OF ATOMS
256
ITEM: BOX BOUNDS mm mm mm
-1.2800000000000000e+02 1.2800000000000000e+02
-1.2800000000000000e+02 1.2800000000000000e+02
-1.2800000000000000e+02 1.2800000000000000e+02
ITEM: ATOMS id type x y z
1 1 -29.1938 -9.0875 -0.511191
2 1 -28.4048 -9.13246 -0.0816545
3 1 -29.0665 -8.56621 0.373701
4 1 -28.9261 -7.90504 1.10407
5 1 -29.4084 -7.25023 1.53872
6 1 -29.8472 -6.53734 1.15068
7 1 -30.4379 -5.85466 1.39013
8 1 -30.4909 -5.03831 1.89176
9 1 -30.2423 -4.15711 2.19126
10 1 -30.018 -4.0976 1.27523
11 1 -30.0005 -4.31433 0.381137
12 1 -30.3342 -4.89629 -0.275639
13 1 -30.5833 -4.03777 -0.672859
14 1 -31.1213 -3.68424 -1.32877
15 1 -31.564 -2.90855 -1.0551
16 1 -31.9658 -2.96201 -0.235502
17 1 -31.549 -3.82326 -0.0644197
18 1 -30.8838 -3.12403 -0.19551
19 1 -29.9254 -3.07886 -0.170835
20 1 -29.3835 -2.34921 -0.492424
21 1 -29.1415 -1.81864 -1.27037
22 1 -29.2209 -1.82486 -2.18933
23 1 -29.1979 -2.07845 -3.11125
24 1 -29.8467 -1.42608 -3.28717
25 1 -29.9697 -0.899847 -2.50535
26 1 -30.7124 -0.341006 -2.67098
27 1 -31.2877 0.250537 -3.16517
28 1 -31.6069 1.09958 -2.95205
29 1 -31.6404 2.02386 -2.84881
30 1 -31.1607 2.74165 -2.48177
31 1 -30.2914 2.61441 -2.29313
32 1 -30.2122 3.53457 -2.53594
33 1 -29.4442 3.5973 -3.06799
34 1 -28.5942 3.72499 -3.48458
35 1 -28.6552 2.76954 -3.64632
36 1 -27.8025 2.89265 -3.2772
37 1 -28.0549 2.16889 -2.73758
38 1 -28.2982 1.98716 -1.84103
39 1 -27.4097 2.09652 -1.74835
40 1 -26.7177 2.59901 -2.12127
41 1 -26.7849 2.7985 -3.03999
42 1 -26.7824 3.5372 -3.58876
43 1 -27.3219 3.78564 -4.29022
44 1 -26.4614 3.89537 -4.53399
45 1 -25.7559 3.98106 -5.20804
46 1 -25.9959 3.32284 -5.80766
47 1 -26.2805 2.4447 -5.81256
48 1 -25.4595 2.14841 -6.24888
49 1 -24.8607 2.29587 -5.55738
50 1 -24.2588 2.75814 -4.92147
51 1 -24.8786 3.42289 -4.64403
52 1 -24.3441 3.97729 -4.0895
53 1 -23.5485 4.10944 -3.63547
54 1 -23.4275 4.8706 -3.13883
55 1 -24.1206 5.29476 -2.58021
56 1 -24.8546 5.87704 -2.48737
57 1 -24.8473 5.97653 -1.61313
58 1 -24.877 6.19815 -0.712128
59 1 -24.2635 6.87479 -0.659926
60 1 -24.1404 7.81182 -0.616101
61 1 -23.4049 8.40785 -0.355645
62 1 -24.1923 8.98027 -0.330801
63 1 -25.0587 8.72111 -0.0237434
64 1 -25.8598 9.09552 -0.342966
65 1 -25.6193 9.81508 -0.939581
66 1 -25.959 10.6394 -1.31459
67 1 -25.5053 11.458 -1.06274
68 1 -25.6868 11.4866 -1.96656
69 1 -25.7683 10.6143 -2.46794
70 1 -26.2419 9.88452 -2.93717
71 1 -25.5521 9.78731 -3.62463
72 1 -26.3712 9.37151 -4.14124
73 1 -25.5676 9.20342 -4.67967
74 1 -24.7288 8.9 -4.36118
75 1 -24.4763 8.39636 -3.61417
76 1 -23.6495 8.07059 -3.54948
77 1 -22.9534 8.52783 -3.16439
78 1 -22.4938 9.30002 -3.46397
79 1 -21.7694 9.91592 -3.34568
80 1 -20.9155 10.0085 -2.90634
81 1 -20.2957 10.1186 -3.59149
82 1 -19.4974 10.2357 -3.05874
83 1 -18.5749 10.2231 -3.17677
84 1 -17.7511 10.5163 -3.50497
85 1 -16.9687 10.5919 -2.98644
86 1 -16.6597 11.3101 -2.48898
87 1 -16.0361 11.6796 -3.11837
88 1 -16.7335 12.1838 -3.49884
89 1 -17.6164 12.1696 -3.14427
90 1 -18.4879 12.5962 -3.06047
91 1 -17.9598 13.3694 -2.93081
92 1 -17.8338 14.0014 -2.22144
93 1 -18.3355 14.5389 -2.79149
94 1 -18.0288 15.3281 -2.41794
95 1 -18.2763 16.0575 -2.9868
96 1 -17.7229 16.2033 -3.75368
97 1 -16.8439 16.4975 -3.68152
98 1 -16.754 16.0122 -2.89377
99 1 -15.9077 16.0615 -2.47899
100 1 -15.3496 15.803 -1.72984
101 1 -15.446 14.9514 -1.33319
102 1 -14.948 15.1216 -0.590272
103 1 -14.7845 15.4326 0.303167
104 1 -14.2433 16.0051 0.751986
105 1 -14.5279 15.6632 1.54963
106 1 -14.6394 16.4182 2.16045
107 1 -14.4865 17.0432 2.81637
108 1 -14.4769 17.0657 3.82366
109 1 -14.2022 16.1729 4.0338
110 1 -13.6512 15.4545 4.28042
111 1 -13.0587 15.3122 5.0274
112 1 -12.7124 16.0873 5.36347
113 1 -12.0209 15.8712 4.8269
114 1 -11.6251 16.3952 5.47397
115 1 -11.9986 16.6696 6.27582
116 1 -11.347 16.8144 6.93493
117 1 -10.7571 16.3292 7.44999
118 1 -10.3091 17.1845 7.38125
119 1 -9.72855 17.9423 7.4681
120 1 -9.11814 18.1966 8.15279
121 1 -9.32801 19.0982 8.00413
122 1 -10.1237 19.2156 7.55468
123 1 -9.60809 19.2889 6.80477
124 1 -9.72021 20.0743 6.34289
125 1 -9.22494 20.3168 5.60974
126 1 -8.34683 20.2612 5.93544
127 1 -8.28036 20.1001 5.03925
128 1 -9.03318 20.1975 4.48858
129 1 -8.90831 19.3272 4.78795
130 1 -8.76606 18.5357 5.31478
131 1 -9.36365 17.868 5.54357
132 1 -8.91468 16.995 5.64216
133 1 -8.13769 16.6462 5.13628
134 1 -7.32079 16.6904 4.63789
135 1 -6.76785 15.9379 4.42304
136 1 -7.27478 15.162 4.11732
137 1 -8.19898 15.1389 4.21126
138 1 -8.69627 14.5866 3.64427
139 1 -9.22114 14.2944 2.91696
140 1 -9.70639 13.4722 2.99211
141 1 -8.93798 13.0083 3.3218
142 1 -8.22125 12.7059 3.86015
143 1 -7.91906 11.8179 4.09339
144 1 -7.36056 12.1892 3.44926
145 1 -6.47876 12.6101 3.25939
146 1 -6.34146 12.4383 4.13704
147 1 -6.14714 11.6482 4.71477
148 1 -5.76158 12.3249 5.14115
149 1 -5.3804 12.5637 5.92987
150 1 -4.80057 11.9232 5.56879
151 1 -4.19588 12.3058 4.9751
152 1 -4.81261 11.9001 4.4058
153 1 -4.13175 11.2883 4.24862
154 1 -4.06635 10.3903 4.60771
155 1 -4.21084 9.5016 4.46237
156 1 -3.94635 8.6147 4.48235
157 1 -3.20854 8.28979 4.10056
158 1 -3.31431 7.63879 4.78286
159 1 -3.76305 7.08568 4.14462
160 1 -3.22304 6.63789 3.51775
161 1 -2.38373 6.32728 3.46068
162 1 -1.90808 5.56841 3.27773
163 1 -2.07704 4.83074 2.68515
164 1 -1.84682 5.30208 1.94886
165 1 -1.75804 6.16355 1.54691
166 1 -2.64102 6.26576 1.92888
167 1 -2.98168 6.05161 1.12919
168 1 -3.12973 5.4919 0.390937
169 1 -3.60127 5.82263 -0.315047
170 1 -4.08664 6.12597 -1.03087
171 1 -3.98985 5.67448 -1.86564
172 1 -4.91663 5.68096 -1.746
173 1 -5.36413 6.27268 -1.18105
174 1 -5.09348 6.70385 -0.419463
175 1 -5.26962 7.64636 -0.429745
176 1 -4.33148 7.51818 -0.300806
177 1 -3.54397 7.04812 -0.595667
178 1 -2.80079 6.64451 -0.187733
179 1 -2.44903 7.46108 -0.0325129
180 1 -1.59602 7.28475 0.193265
181 1 -1.17796 6.87386 0.925906
182 1 -1.77711 7.5608 1.34021
183 1 -2.63327 7.74496 1.51794
184 1 -2.86767 8.64539 1.48486
185 1 -2.83913 9.16223 2.25334
186 1 -2.21794 8.81318 2.86333
187 1 -1.66604 9.57597 2.59592
188 1 -1.43785 8.91973 1.99515
189 1 -0.608678 8.90969 1.5832
190 1 -0.514656 9.37336 2.42415
191 1 -0.191437 9.41525 3.29975
192 1 -1.05762 9.16937 3.63263
193 1 -0.47754 8.90161 4.29495
194 1 0.39023 8.94219 3.97137
195 1 0.769862 8.21438 4.40927
196 1 1.45352 7.68534 4.65357
197 1 2.07907 7.07969 5.03104
198 1 2.0535 6.94327 5.90457
199 1 2.95729 6.63674 6.15244
200 1 3.40786 6.64992 7.02396
201 1 4.24992 6.83948 7.41663
202 1 4.96054 7.21729 7.88199
203 1 4.46377 8.00109 7.74712
204 1 4.11829 8.68154 8.23837
205 1 4.00115 9.28559 8.96831
206 1 3.71053 8.9078 9.7513
207 1 3.67295 9.84291 9.89302
208 1 4.10577 10.5822 9.44803
209 1 3.94525 11.2031 10.1645
210 1 4.14359 12.0697 9.93006
211 1 4.46803 12.5753 9.23357
212 1 4.92661 13.3486 8.95794
213 1 4.7498 13.5586 9.88274
214 1 5.02879 14.0204 10.7098
215 1 5.63308 13.4489 11.1756
216 1 6.35063 14.0745 11.1817
217 1 5.72624 14.5469 11.7199
218 1 5.3052 14.058 12.4076
219 1 4.69449 13.3575 12.2492
220 1 3.8934 13.2245 12.6599
221 1 3.90047 13.7958 13.4086
222 1 3.65325 14.6573 13.686
223 1 3.73096 15.5871 13.6246
224 1 4.14894 16.1615 13.0107
225 1 3.87992 16.772 12.3288
226 1 3.68918 17.3368 13.1704
227 1 3.66875 17.0874 14.0935
228 1 3.28492 16.5275 14.7274
229 1 3.18867 15.659 15.1164
230 1 2.76059 15.3662 15.9125
231 1 2.08357 14.9674 16.448
232 1 1.57759 14.327 15.933
233 1 0.948111 14.4252 15.2174
234 1 0.406784 13.7733 14.8277
235 1 1.32628 13.5557 14.802
236 1 1.25483 14.1166 14.0197
237 1 1.49023 14.2363 13.1283
238 1 1.22297 14.9824 12.6258
239 1 1.35543 15.455 11.8118
240 1 1.0367 15.4281 10.9177
241 1 1.17954 15.2456 10.0028
242 1 1.02016 15.8548 9.29055
243 1 0.144777 16.1834 9.19498
244 1 -0.551731 16.6728 9.69666
245 1 -1.24793 16.7175 10.4207
246 1 -1.35167 15.7813 10.2544
247 1 -1.45929 15.1842 9.51792
248 1 -0.879525 14.5644 8.96574
249 1 -1.11128 13.7152 8.63675
250 1 -0.791056 13.0992 7.96963
251 1 -0.455718 12.2784 7.68027
252 1 -0.0349216 12.1162 6.81373
253 1 -0.655431 11.8677 6.13266
254 1 -0.716603 11.0751 5.68196
255 1 -1.62829 11.115 5.31784
256 1 -1.84157 12.0647 5.56061
ITEM: TIMESTEP
1570000
ITEM: NUMBER OF ATOMS
256
ITEM: BOX BOUNDS mm mm mm
-1.2800000000000000e+02 1.2800000000000000e+02
-1.2800000000000000e+02 1.2800000000000000e+02
-1.2800000000000000e+02 1.2800000000000000e+02
ITEM: ATOMS id type x y z
1 1 -27.41 -2.31709 3.7266
2 1 -26.9394 -3.09071 3.84725
3 1 -26.5353 -3.33707 4.69833
4 1 -26.6398 -2.45541 5.04241
5 1 -25.8389 -2.0846 5.32706
6 1 -24.9415 -2.06841 5.69882
7 1 -25.1577 -1.15935 5.59158
8 1 -25.2145 -1.30194 4.68209
9 1 -24.6202 -1.19669 3.93967
10 1 -24.0702 -1.69285 3.36363
11 1 -23.8699 -1.54284 2.48297
12 1 -23.1928 -1.23417 1.82952
13 1 -22.7717 -0.820152 2.59424
14 1 -23.3671 -0.056322 2.51273
15 1 -24.0267 -0.453765 1.93699
16 1 -24.5233 -0.891586 1.24505
17 1 -24.9901 -0.296287 0.696397
18 1 -25.9409 -0.153396 0.752095
19 1 -26.8654 0.0472997 0.56894
20 1 -27.54 0.0110053 -0.109426
21 1 -27.7012 0.635707 -0.781463
22 1 -27.3171 1.20528 -1.45024
23 1 -27.6829 2.03247 -1.802
24 1 -27.7495 1.91884 -2.75304
25 1 -28.003 2.48067 -3.42182
26 1 -27.5861 3.33982 -3.81355
27 1 -28.1946 3.83714 -4.28723
28 1 -28.6099 2.98957 -4.51862
29 1 -27.9826 2.42758 -4.81711
30 1 -27.3915 2.03669 -5.43289
31 1 -27.99 2.15232 -6.12291
32 1 -27.3439 1.46245 -6.44063
33 1 -26.458 1.32212 -6.53724
34 1 -26.0122 1.14862 -5.67118
35 1 -25.1313 1.31488 -6.02697
36 1 -24.5309 1.98984 -6.0905
37 1 -24.7211 2.65948 -5.42436
38 1 -24.9068 3.56168 -5.25278
39 1 -25.0131 3.11448 -4.4601
40 1 -25.6377 2.45495 -4.26713
41 1 -26.1292 2.87758 -3.56038
42 1 -25.6877 3.16965 -2.798
43 1 -26.0018 3.80984 -2.13714
44 1 -25.8969 4.75306 -2.05803
45 1 -26.431 4.83758 -1.30445
46 1 -27.1581 4.98405 -0.734446
47 1 -27.4579 5.19369 -1.60661
48 1 -27.715 5.98793 -1.99148
49 1 -27.7855 5.45315 -2.86385
50 1 -26.9956 5.40387 -3.46195
51 1 -27.1285 6.21052 -3.9195
52 1 -27.6472 6.98186 -3.64247
53 1 -27.7272 7.63898 -4.29942
54 1 -28.1001 8.40011 -3.96926
55 1 -27.8863 7.92901 -3.16074
56 1 -27.0755 8.31765 -3.13428
57 1 -27.0639 9.19679 -3.39367
58 1 -26.401 9.57284 -3.94092
59 1 -26.2578 10.2645 -4.49737
60 1 -25.4859 10.115 -3.99777
61 1 -25.3412 10.998 -4.2187
62 1 -26.1154 11.5188 -3.9955
63 1 -27.0106 11.6921 -4.02013
64 1 -27.0288 12.4495 -3.46507
65 1 -26.8689 12.2338 -2.59472
66 1 -26.4449 12.8096 -2.02202
67 1 -25.9349 12.1614 -1.55315
68 1 -25.0163 12.1065 -1.47936
69 1 -25.1355 11.3286 -2.00384
70 1 -24.69 11.3845 -2.80806
71 1 -24.4251 12.22 -2.47445
72 1 -23.6216 11.7103 -2.49987
73 1 -22.6845 11.532 -2.46164
74 1 -22.3465 11.8289 -3.30578
75 1 -22.4273 12.3566 -4.06632
76 1 -22.1208 13.2236 -4.21153
77 1 -21.8182 14.107 -4.06905
78 1 -21.2966 14.7517 -3.61908
79 1 -20.4922 15.1284 -4.04247
80 1 -19.9969 14.2874 -3.92233
81 1 -19.6345 14.5968 -3.0661
82 1 -18.7083 14.5203 -2.91597
83 1 -18.8326 15.4583 -3.18886
84 1 -18.1844 15.5881 -3.89366
85 1 -17.6196 16.2872 -3.99017
86 1 -17.7422 17.1684 -3.73515
87 1 -17.4219 17.5022 -2.93654
88 1 -17.2733 16.9493 -2.21053
89 1 -16.9691 17.4468 -1.40722
90 1 -17.2443 18.0498 -0.708035
91 1 -16.3986 17.8414 -0.31617
92 1 -15.6587 17.2668 -0.544897
93 1 -15.0164 17.4781 -1.22978
94 1 -14.8402 18.1559 -0.596673
95 1 -15.6707 18.6497 -0.58155
96 1 -16.0805 19.3691 -0.107162
97 1 -16.6747 19.6545 0.655386
98 1 -17.2372 20.2705 0.937495
99 1 -16.5723 20.6881 1.48571
100 1 -16.6493 20.9347 0.498071
101 1 -15.7011 21.0731 0.517513
102 1 -15.4737 20.1782 0.662463
103 1 -14.9098 19.788 1.31571
104 1 -14.367 20.2461 0.724681
105 1 -13.6479 20.8505 0.518615
106 1 -12.896 20.4838 1.00314
107 1 -12.0457 20.5863 1.45569
108 1 -11.9685 20.6608 2.40414
109 1 -11.1799 20.0764 2.57174
110 1 -10.9765 19.3365 2.01426
111 1 -10.2927 18.778 1.75249
112 1 -10.8963 18.2012 1.32912
113 1 -10.5926 17.7298 2.09886
114 1 -10.7212 17.5035 3.01642
115 1 -11.4659 17.7999 3.56528
116 1 -11.4849 16.8029 3.62792
117 1 -11.9733 16.0585 3.38139
118 1 -12.5771 16.4301 2.68613
119 1 -12.9275 15.562 2.75777
120 1 -12.8289 14.8229 2.10766
121 1 -12.4311 14.9043 1.25925
122 1 -12.1711 13.9785 1.2866
123 1 -11.8294 13.1328 1.22244
124 1 -11.0996 12.5964 1.42248
125 1 -10.2107 12.4783 1.6936
126 1 -9.76872 12.4546 0.895814
127 1 -9.37039 13.2178 0.533813
128 1 -9.51983 13.5598 1.43639
129 1 -10.4522 13.8335 1.52554
130 1 -11.0312 14.0469 2.22487
131 1 -11.4659 13.6589 3.01225
132 1 -12.2848 13.4108 3.44832
133 1 -12.7316 14.2972 3.61869
134 1 -12.9479 14.6078 4.47952
135 1 -12.8775 14.1917 5.32638
136 1 -11.8994 14.1681 5.70269
137 1 -11.1804 14.4697 5.14154
138 1 -10.8035 13.7995 4.57851
139 1 -10.8563 13.2772 5.39193
140 1 -10.7641 13.2593 6.32894
141 1 -10.0743 13.1268 6.92791
142 1 -9.80709 13.7775 6.37302
143 1 -9.11288 13.9635 5.73087
144 1 -8.16935 13.8754 5.69806
145 1 -7.66 13.6477 6.46964
146 1 -8.11442 12.8277 6.59378
147 1 -7.81889 12.0345 6.20256
148 1 -7.81929 11.1364 5.9262
149 1 -7.83901 10.2358 5.54444
150 1 -7.70175 9.55569 4.92743
151 1 -7.33799 8.66805 4.90952
152 1 -6.56982 9.00451 5.32865
153 1 -5.68782 8.83874 5.14212
154 1 -5.27604 8.47463 4.29054
155 1 -4.74512 8.48834 3.52755
156 1 -3.89762 8.63175 3.11794
157 1 -3.23886 8.11948 3.4722
158 1 -2.74052 8.55235 4.18313
159 1 -2.08585 9.22438 4.21736
160 1 -2.43311 10.0695 4.4442
161 1 -3.33652 10.0646 4.69289
162 1 -3.71582 9.37535 5.15875
163 1 -4.14157 8.50382 5.00504
164 1 -3.76215 7.74144 5.38202
165 1 -3.57018 7.44491 6.25498
166 1 -3.69306 6.58182 6.63847
167 1 -2.98923 6.35109 6.0668
168 1 -2.79532 5.46532 5.7725
169 1 -2.28702 5.13511 6.553
170 1 -1.82012 4.67757 5.81015
171 1 -1.38883 5.09929 5.12658
172 1 -0.747594 5.74656 4.83295
173 1 -0.959732 5.73934 3.86975
174 1 -0.0713438 6.03444 4.2445