ITEM: TIMESTEP
2620000
ITEM: NUMBER OF ATOMS
256
ITEM: BOX BOUNDS mm mm mm
-1.2800000000000000e+02 1.2800000000000000e+02
-1.2800000000000000e+02 1.2800000000000000e+02
-1.2800000000000000e+02 1.2800000000000000e+02
ITEM: ATOMS id type x y z
1 1 -43.6545 36.5549 42.4345
2 1 -43.3087 35.7353 42.3716
3 1 -43.0303 34.8881 42.3079
4 1 -42.7838 33.9771 42.1646
5 1 -42.3077 33.1599 42.137
6 1 -41.8338 32.3481 42.0321
7 1 -41.3047 31.6318 41.8428
8 1 -40.6823 30.9342 41.6047
9 1 -40.1057 30.2432 41.3704
10 1 -39.4306 29.5855 41.2067
11 1 -38.8032 28.9169 41.0011
12 1 -38.131 28.2273 40.6966
13 1 -37.5246 27.6937 40.2451
14 1 -36.9428 27.0748 39.9064
15 1 -36.4045 26.3449 39.6252
16 1 -35.7638 25.788 39.2354
17 1 -35.0411 25.2191 38.8756
18 1 -34.2966 24.7353 38.5296
19 1 -33.5415 24.3179 38.2279
20 1 -32.7975 23.9324 37.8567
21 1 -32.0874 23.5474 37.3826
22 1 -31.3982 23.1317 36.9047
23 1 -30.7074 22.6509 36.5532
24 1 -29.9503 22.1629 36.2418
25 1 -29.122 21.8161 35.9628
26 1 -28.3006 21.4837 35.6153
27 1 -27.5808 21.3503 34.9894
28 1 -26.8624 21.3755 34.4045
29 1 -26.1807 21.3426 33.7486
30 1 -25.6379 21.235 33.0271
31 1 -25.0835 21.1785 32.2906
32 1 -24.5391 21.1499 31.4233
33 1 -23.9307 21.2716 30.7501
34 1 -23.3941 21.424 29.9866
35 1 -22.822 21.4538 29.3381
36 1 -22.0151 21.4388 28.7793
37 1 -21.2663 21.5557 28.1917
38 1 -20.4014 21.6276 27.8018
39 1 -19.5147 21.5071 27.4835
40 1 -18.6214 21.3987 27.1945
41 1 -17.729 21.2391 26.8875
42 1 -16.9001 21.1301 26.6765
43 1 -16.0294 21.0047 26.3308
44 1 -15.2679 20.7376 25.9168
45 1 -14.3933 20.4405 25.5894
46 1 -13.5433 20.1697 25.3953
47 1 -12.6669 19.8554 25.332
48 1 -11.8289 19.5068 25.1295
49 1 -10.9595 19.3016 24.9241
50 1 -10.1913 18.9402 24.6123
51 1 -9.39428 18.5099 24.3446
52 1 -8.63403 18.1337 24.0463
53 1 -7.87119 17.7512 23.6923
54 1 -7.00024 17.4195 23.2715
55 1 -6.1666 17.0814 22.9027
56 1 -5.35043 16.7791 22.4475
57 1 -4.54992 16.5649 22.0257
58 1 -3.75232 16.3446 21.6526
59 1 -3.03596 16.0538 21.136
60 1 -2.27075 15.9723 20.533
61 1 -1.50317 15.9836 19.967
62 1 -0.693619 16.1268 19.3864
63 1 0.148576 16.2268 18.872
64 1 0.95301 16.4225 18.443
65 1 1.7366 16.7062 17.8656
66 1 2.47646 16.933 17.2863
67 1 3.07823 17.2637 16.6538
68 1 3.80156 17.6381 16.159
69 1 4.48877 17.9083 15.5979
70 1 5.10079 18.2431 14.9133
71 1 5.76071 18.6535 14.3937
72 1 6.39554 19.0202 13.8699
73 1 7.06351 19.5503 13.5192
74 1 7.75072 19.9821 13.0494
75 1 8.46109 20.5623 12.6875
76 1 9.15172 21.1823 12.3553
77 1 9.6901 21.856 12.1171
78 1 10.2719 22.4821 11.8052
79 1 10.8784 23.0714 11.5357
80 1 11.567 23.7078 11.371
81 1 12.2549 24.3718 11.1962
82 1 12.868 25.0538 11.0638
83 1 13.4629 25.8203 10.9517
84 1 14.0213 26.4814 10.8623
85 1 14.5572 27.2293 10.8582
86 1 15.0491 28.066 10.9541
87 1 15.5231 28.8783 10.9424
88 1 16.0915 29.6975 10.9879
89 1 16.6764 30.39 10.7421
90 1 17.2635 31.0776 10.4788
91 1 17.8565 31.7668 10.3527
92 1 18.4495 32.4332 10.1568
93 1 19.0594 33.0952 9.80235
94 1 19.7917 33.648 9.58654
95 1 20.5239 34.2461 9.34916
96 1 21.2686 34.7942 9.09405
97 1 21.8892 35.4715 8.79825
98 1 22.5319 36.1344 8.42475
99 1 23.0763 36.8224 8.08964
100 1 23.6446 37.4549 7.65468
101 1 24.2126 38.0706 7.21776
102 1 24.755 38.6801 6.8103
103 1 25.2338 39.3174 6.34762
104 1 25.658 39.8979 5.80644
105 1 26.0645 40.5406 5.23861
106 1 26.4708 41.2002 4.80991
107 1 26.8913 41.9134 4.3746
108 1 27.3073 42.6003 3.87065
109 1 27.6722 43.2545 3.31503
110 1 28.0187 44.0022 2.81264
111 1 28.3353 44.7093 2.31014
112 1 28.6473 45.4105 1.76219
113 1 28.8117 46.0966 1.10729
114 1 28.7965 46.8384 0.446887
115 1 28.5917 47.5423 -0.187109
116 1 28.3239 48.1849 -0.780305
117 1 27.9493 48.7376 -1.38151
118 1 27.5367 49.3044 -2.03573
119 1 27.1977 49.7904 -2.80262
120 1 26.9011 50.0041 -3.69951
121 1 26.6597 50.2621 -4.56998
122 1 26.399 50.4626 -5.46158
123 1 26.0368 50.5408 -6.33795
124 1 25.5728 50.5665 -7.14879
125 1 24.9941 50.5849 -7.91745
126 1 24.4693 50.6756 -8.72992
127 1 23.9831 50.8 -9.57115
128 1 23.5279 50.9497 -10.3602
129 1 22.9246 51.0663 -11.1346
130 1 22.27 51.1117 -11.8577
131 1 21.6388 51.2149 -12.5743
132 1 21.1169 51.2152 -13.3087
133 1 20.5296 51.3545 -14.0069
134 1 19.8861 51.4227 -14.6716
135 1 19.2664 51.5066 -15.3781
136 1 18.5718 51.5745 -15.9865
137 1 17.8035 51.4106 -16.5791
138 1 17.0476 51.1846 -17.0798
139 1 16.283 50.9658 -17.5992
140 1 15.5391 50.8197 -18.1632
141 1 14.7635 50.7657 -18.6926
142 1 13.9951 50.4924 -19.157
143 1 13.306 50.1306 -19.7905
144 1 12.6308 49.8577 -20.4534
145 1 11.9879 49.4383 -21.047
146 1 11.4234 48.9631 -21.5998
147 1 10.8329 48.5351 -22.1691
148 1 10.2831 48.0454 -22.8057
149 1 9.78078 47.6175 -23.4666
150 1 9.36971 47.1392 -24.1993
151 1 9.10785 46.5513 -24.8295
152 1 8.83393 45.9368 -25.4629
153 1 8.54106 45.3142 -26.0863
154 1 8.20798 44.7181 -26.7736
155 1 7.95488 44.1242 -27.4826
156 1 7.76756 43.4124 -28.0799
157 1 7.61951 42.6616 -28.6095
158 1 7.41934 41.8611 -29.1121
159 1 7.28772 41.0242 -29.4655
160 1 7.11605 40.1655 -29.8468
161 1 6.93814 39.3037 -30.236
162 1 6.8728 38.456 -30.7026
163 1 6.71821 37.6558 -31.1476
164 1 6.6114 36.7868 -31.534
165 1 6.65062 35.9591 -31.974
166 1 6.79304 35.1525 -32.4956
167 1 6.91727 34.4183 -33.0997
168 1 6.99825 33.7343 -33.753
169 1 7.07697 33.0341 -34.3471
170 1 7.08685 32.3284 -34.9584
171 1 7.1473 31.6547 -35.5646
172 1 7.24337 30.8761 -36.0539
173 1 7.36276 30.0896 -36.6058
174 1 7.58347 29.2515 -37.1085
175 1 7.70162 28.4691 -37.6214
176 1 7.81365 27.7508 -38.1763
177 1 8.02939 26.9928 -38.6869
178 1 8.18274 26.2888 -39.2766
179 1 8.37356 25.5645 -39.8098
180 1 8.63392 24.7554 -40.1868
181 1 8.9935 23.9514 -40.5252
182 1 9.33948 23.1594 -40.8134
183 1 9.72391 22.334 -41.1102
184 1 10.1974 21.5706 -41.2747
185 1 10.7094 20.8164 -41.5107
186 1 11.2252 20.0198 -41.677
187 1 11.8353 19.2786 -41.7477
188 1 12.5029 18.609 -41.7372
189 1 13.2358 18.0754 -41.7757
190 1 13.9697 17.5219 -41.8356
191 1 14.7318 16.9166 -41.728
192 1 15.4847 16.3492 -41.4939
193 1 16.2762 15.8187 -41.3451
194 1 17.1183 15.3833 -41.0979
195 1 17.895 14.9829 -40.891
196 1 18.5779 14.4809 -40.5311
197 1 19.2407 13.9443 -40.0301
198 1 19.8894 13.407 -39.675
199 1 20.5737 12.8473 -39.2643
200 1 21.2367 12.3232 -38.8414
201 1 21.9222 11.8081 -38.474
202 1 22.6625 11.2328 -38.2131
203 1 23.3573 10.7749 -37.8331
204 1 23.9327 10.238 -37.336
205 1 24.5432 9.73624 -36.8254
206 1 25.1686 9.13065 -36.3455
207 1 25.7236 8.54393 -35.8241
208 1 26.1821 7.88273 -35.3324
209 1 26.69 7.26959 -34.8272
210 1 27.155 6.61043 -34.3868
211 1 27.5346 5.95101 -33.8254
212 1 27.9486 5.26256 -33.2581
213 1 28.3057 4.54127 -32.7746
214 1 28.5475 3.7595 -32.3071
215 1 28.7421 2.97634 -31.8239
216 1 28.7559 2.20612 -31.3583
217 1 28.811 1.41726 -30.8308
218 1 28.8977 0.677264 -30.3066
219 1 29.0112 -0.0864278 -29.7419
220 1 29.1218 -0.808569 -29.0693
221 1 29.033 -1.53213 -28.4559
222 1 29.0882 -2.35875 -28.0091
223 1 29.1632 -3.197 -27.5409
224 1 29.3786 -3.90699 -26.9855
225 1 29.49 -4.54839 -26.3314
226 1 29.4941 -5.26519 -25.5687
227 1 29.5127 -5.92865 -24.9099
228 1 29.5475 -6.54767 -24.2034
229 1 29.6223 -7.14569 -23.4712
230 1 29.5732 -7.79402 -22.7824
231 1 29.4303 -8.41863 -22.0532
232 1 29.3503 -9.05801 -21.3374
233 1 29.2871 -9.7308 -20.6807
234 1 29.2618 -10.3933 -20.0394
235 1 29.2549 -10.975 -19.3334
236 1 29.1395 -11.5631 -18.5827
237 1 28.9505 -11.9979 -17.7558
238 1 28.7429 -12.3445 -16.9831
239 1 28.3811 -12.5591 -16.1422
240 1 27.9733 -12.8644 -15.2754
241 1 27.6222 -13.113 -14.4523
242 1 27.117 -13.2957 -13.6775
243 1 26.673 -13.4751 -12.8905
244 1 26.2521 -13.7737 -12.0412
245 1 25.82 -14.0035 -11.2555
246 1 25.3946 -14.3252 -10.463
247 1 25.1018 -14.6918 -9.61205
248 1 24.6897 -15.0333 -8.87378
249 1 24.2108 -15.2287 -8.12041
250 1 23.7424 -15.3241 -7.28774
251 1 23.2484 -15.4301 -6.43412
252 1 22.7232 -15.5202 -5.63626
253 1 22.1997 -15.5715 -4.8249
254 1 21.6453 -15.6707 -4.06248
255 1 21.1091 -15.6989 -3.28971
256 1 20.6016 -15.7257 -2.5169
ITEM: TIMESTEP
2630000
ITEM: NUMBER OF ATOMS
256
ITEM: BOX BOUNDS mm mm mm
-1.2800000000000000e+02 1.2800000000000000e+02
-1.2800000000000000e+02 1.2800000000000000e+02
-1.2800000000000000e+02 1.2800000000000000e+02
ITEM: ATOMS id type x y z
1 1 -43.2429 35.5549 43.7811
2 1 -42.3468 35.3782 43.5488
3 1 -41.5369 35.0345 43.4009
4 1 -40.7274 34.5111 43.2647
5 1 -39.976 34.004 43.1222
6 1 -39.1383 33.6579 43.0405
7 1 -38.2519 33.2555 43.0451
8 1 -37.4296 32.823 43.0241
9 1 -36.6287 32.335 42.8997
10 1 -35.8927 31.8373 42.8562
11 1 -35.1614 31.2148 42.7974
12 1 -34.3857 30.7053 42.7176
13 1 -33.5835 30.2698 42.573
14 1 -32.799 29.8137 42.4599
15 1 -31.9326 29.4061 42.2445
16 1 -31.1108 29.0939 41.9598
17 1 -30.2851 28.8362 41.5648
18 1 -29.6098 28.5645 41.0278
19 1 -28.8508 28.2852 40.5101
20 1 -28.2356 28.0233 39.8651
21 1 -27.611 27.6116 39.2725
22 1 -27.1161 27.1077 38.6159
23 1 -26.6232 26.5842 37.934
24 1 -26.2118 26.0369 37.3158
25 1 -25.7423 25.49 36.787
26 1 -25.117 24.9265 36.3771
27 1 -24.481 24.3688 36.0219
28 1 -23.7952 23.6655 35.7129
29 1 -23.1735 22.9748 35.3211
30 1 -22.5192 22.4067 35.0319
31 1 -21.8681 21.7929 34.7424
32 1 -21.235 21.198 34.4908
33 1 -20.6285 20.5699 34.0709
34 1 -19.917 20.0641 33.7055
35 1 -19.251 19.6465 33.2347
36 1 -18.5224 19.2557 32.8127
37 1 -17.8072 18.8941 32.2775
38 1 -17.1414 18.5525 31.7374
39 1 -16.5388 18.2188 31.1133
40 1 -15.8932 17.9139 30.5403
41 1 -15.2011 17.6033 29.9182
42 1 -14.5175 17.3836 29.3085
43 1 -13.9005 17.218 28.6036
44 1 -13.2661 17.0324 27.9393
45 1 -12.627 16.7614 27.3215
46 1 -11.9483 16.491 26.72
47 1 -11.2835 16.3539 26.0562
48 1 -10.6993 16.3364 25.3533
49 1 -10.1357 16.4174 24.5873
50 1 -9.515 16.4638 23.8637
51 1 -8.83679 16.5967 23.2431
52 1 -8.21587 16.7077 22.4813
53 1 -7.6323 16.9512 21.7533
54 1 -7.0437 17.2046 21.075
55 1 -6.47745 17.6333 20.4709
56 1 -5.79723 18.0112 19.8928
57 1 -5.05436 18.2749 19.2984
58 1 -4.28851 18.5985 18.7858
59 1 -3.56177 18.9255 18.3456
60 1 -2.79957 19.1862 17.8945
61 1 -2.0442 19.4476 17.3887
62 1 -1.32151 19.7268 16.869
63 1 -0.588247 20.0604 16.3341
64 1 0.153773 20.2517 15.7316
65 1 0.855634 20.5609 15.1682
66 1 1.6154 20.7391 14.5967
67 1 2.26504 21.0318 13.9668
68 1 2.95033 21.4659 13.4004
69 1 3.53055 21.9082 12.8512
70 1 4.18974 22.3091 12.2982
71 1 4.83931 22.7117 11.7863
72 1 5.52208 23.0945 11.3717
73 1 6.33321 23.5057 10.9293
74 1 7.08216 23.9027 10.5618
75 1 7.90239 24.2364 10.2453
76 1 8.70424 24.4477 9.85076
77 1 9.56922 24.6594 9.55139
78 1 10.4458 24.9399 9.27141
79 1 11.3931 25.0106 9.10553
80 1 12.2482 25.1542 8.73141
81 1 13.1067 25.2524 8.48003
82 1 13.9348 25.5221 8.28115
83 1 14.835 25.6924 8.09172
84 1 15.7238 25.885 8.03662
85 1 16.5938 26.138 7.98545
86 1 17.5292 26.2829 8.00183
87 1 18.4191 26.5838 7.91456
88 1 19.2987 26.8949 7.80928
89 1 20.1307 27.3924 7.73274
90 1 20.8634 27.9989 7.70567
91 1 21.5434 28.6233 7.69083
92 1 22.1855 29.4256 7.69985
93 1 22.8632 30.0517 7.80092
94 1 23.545 30.7188 7.72998
95 1 24.2206 31.2912 7.46998
96 1 24.9091 31.9039 7.23304
97 1 25.6984 32.5608 7.10174
98 1 26.3493 33.2301 6.92808
99 1 27.0367 33.842 6.6841
100 1 27.5194 34.5895 6.33041
101 1 27.8982 35.419 6.00883
102 1 28.192 36.2799 5.71603
103 1 28.4409 37.0485 5.32421
104 1 28.7837 37.7516 4.81339
105 1 29.2082 38.4082 4.26203
106 1 29.4159 39.1163 3.79417
107 1 29.6649 39.9135 3.35353
108 1 29.8592 40.7543 2.89556
109 1 29.8865 41.4818 2.32016
110 1 29.9409 42.2263 1.59695
111 1 30.0341 42.8906 0.938886
112 1 29.9787 43.5569 0.330525
113 1 29.873 44.2902 -0.305238
114 1 29.7784 45.0489 -0.807414
115 1 29.5426 45.7245 -1.45089
116 1 29.3083 46.3415 -2.1045
117 1 29.0152 46.9068 -2.78001
118 1 28.6619 47.4127 -3.50219
119 1 28.2573 47.8186 -4.23694
120 1 27.8202 48.2148 -5.07715
121 1 27.4723 48.6532 -5.88174
122 1 27.0792 49.037 -6.6439
123 1 26.7546 49.3997 -7.42151
124 1 26.3271 49.7244 -8.23485
125 1 25.8379 49.9883 -9.01907
126 1 25.286 50.3955 -9.64683
127 1 24.7191 50.6432 -10.3368
128 1 24.0269 50.8071 -10.912
129 1 23.3806 50.9011 -11.5688
130 1 22.764 50.9404 -12.2497
131 1 22.1083 50.9228 -12.9463
132 1 21.4349 50.8433 -13.5574
133 1 20.7776 50.8308 -14.2207
134 1 20.0865 50.9564 -14.8301
135 1 19.3738 50.8653 -15.4481
136 1 18.654 50.8013 -16.0076
137 1 17.9201 50.7308 -16.5894
138 1 17.191 50.5943 -17.1707
139 1 16.4799 50.3686 -17.7352
140 1 15.8088 49.9571 -18.278
141 1 15.1291 49.654 -18.8729
142 1 14.3963 49.4072 -19.4845
143 1 13.7238 49.0888 -20.0754
144 1 12.9406 48.9592 -20.6777
145 1 12.2292 48.7422 -21.2742
146 1 11.5836 48.5253 -21.955
147 1 11.0331 48.2196 -22.6585
148 1 10.4572 47.9171 -23.376
149 1 9.87553 47.6509 -24.0802
150 1 9.25188 47.354 -24.7281
151 1 8.72064 46.9836 -25.4074
152 1 8.25625 46.6694 -26.2394
153 1 7.83155 46.2292 -26.9879
154 1 7.51303 45.697 -27.6173
155 1 7.23009 45.1153 -28.3024
156 1 7.08443 44.479 -28.9748
157 1 7.06694 43.7653 -29.5479
158 1 7.02504 43.0547 -30.1758
159 1 7.06288 42.3172 -30.7871
160 1 7.13777 41.5689 -31.3566
161 1 7.27225 40.7882 -31.858
162 1 7.33046 39.9848 -32.3457
163 1 7.3518 39.1758 -32.9249
164 1 7.3168 38.4152 -33.4665
165 1 7.3404 37.6985 -34.0834
166 1 7.42713 36.9698 -34.6864
167 1 7.6254 36.2193 -35.2177
168 1 7.81432 35.4395 -35.7202
169 1 8.0795 34.6693 -36.2112
170 1 8.31313 33.8851 -36.6958
171 1 8.46628 33.1414 -37.2182
172 1 8.71731 32.3666 -37.6966
173 1 9.00136 31.5322 -38.0162
174 1 9.27064 30.6512 -38.3949
175 1 9.52441 29.7689 -38.7006
176 1 9.73588 28.8792 -39.0606
177 1 9.95501 28.0392 -39.3993
178 1 10.2088 27.2113 -39.701
179 1 10.3555 26.2513 -39.9938
180 1 10.4119 25.331 -40.1988
181 1 10.5334 24.4323 -40.3603
182 1 10.6905 23.4697 -40.426
183 1 10.8218 22.6002 -40.6392
184 1 10.9462 21.6652 -40.7579
185 1 11.1432 20.7647 -40.8454
186 1 11.4721 19.96 -41.1789
187 1 11.8914 19.0751 -41.4414
188 1 12.2539 18.2296 -41.7137
189 1 12.6399 17.3791 -41.9924
190 1 13.0583 16.5249 -42.1598
191 1 13.4733 15.6211 -42.3566
192 1 13.8927 14.7524 -42.4539
193 1 14.2818 13.8085 -42.5124
194 1 14.7003 12.9838 -42.4537
195 1 15.1673 12.1089 -42.3799
196 1 15.7129 11.317 -42.3369
197 1 16.309 10.6089 -42.2209
198 1 16.8399 9.88315 -42.0635
199 1 17.3945 9.16861 -41.8572
200 1 17.9611 8.4132 -41.7864
201 1 18.5702 7.60658 -41.7039
202 1 19.0348 6.8454 -41.4362
203 1 19.56 6.13888 -41.0916
204 1 20.1229 5.4879 -40.7171
205 1 20.6089 4.7216 -40.3943
206 1 21.1284 4.0143 -40.0628
207 1 21.5604 3.26593 -39.7203
208 1 22.1457 2.5028 -39.4022
209 1 22.7001 1.78164 -39.1772
210 1 23.211 1.07969 -38.869
211 1 23.8122 0.436584 -38.4815
212 1 24.3284 -0.197839 -38.051
213 1 24.8843 -0.819583 -37.6446
214 1 25.3655 -1.39935 -37.0957
215 1 25.8088 -1.93616 -36.4896
216 1 26.1634 -2.56293 -35.8349
217 1 26.3804 -3.26112 -35.2218
218 1 26.4335 -3.94998 -34.6018
219 1 26.63 -4.61465 -33.9274
220 1 26.8767 -5.18614 -33.2638
221 1 27.2111 -5.62482 -32.4668
222 1 27.49 -6.00879 -31.6835
223 1 27.8391 -6.37167 -30.8302
224 1 28.1508 -6.65716 -30.005
225 1 28.4007 -6.93849 -29.1423
226 1 28.4828 -7.26968 -28.319
227 1 28.4853 -7.64876 -27.4919
228 1 28.3875 -8.05488 -26.632
229 1 28.1633 -8.47574 -25.8347
230 1 28.0489 -9.02486 -25.0132
231 1 27.8323 -9.67401 -24.3219
232 1 27.5576 -10.2461 -23.6315
233 1 27.2409 -10.8717 -22.9421
234 1 26.7919 -11.3271 -22.1809
235 1 26.544 -11.7438 -21.3658
236 1 26.3208 -12.1051 -20.557
237 1 26.0772 -12.5063 -19.7025
238 1 25.7322 -12.8104 -18.8745
239 1 25.4469 -13.1313 -18.0927
240 1 25.1409 -13.3199 -17.229
241 1 24.7329 -13.3675 -16.3837
242 1 24.2244 -13.3999 -15.6049
243 1 23.7081 -13.3602 -14.8284
244 1 23.2244 -13.2497 -14.0402
245 1 22.7854 -13.2839 -13.2195
246 1 22.2398 -13.3368 -12.471
247 1 21.8229 -13.4288 -11.619
248 1 21.298 -13.4958 -10.8378
249 1 20.8199 -13.5402 -10.0169
250 1 20.2167 -13.7106 -9.28097
251 1 19.5821 -13.8481 -8.62661
252 1 19.0034 -13.8315 -7.90784
253 1 18.4057 -13.7839 -7.20766
254 1 17.7759 -13.7422 -6.54641
255 1 17.1321 -13.65 -5.91364
256 1 16.445 -13.5121 -5.33735
ITEM: TIMESTEP
2640000
ITEM: NUMBER OF ATOMS
256
ITEM: BOX BOUNDS mm mm mm
-1.2800000000000000e+02 1.2800000000000000e+02
-1.2800000000000000e+02 1.2800000000000000e+02
-1.2800000000000000e+02 1.2800000000000000e+02
ITEM: ATOMS id type x y z
1 1 -45.7953 34.5112 44.3582
2 1 -44.9221 34.2686 44.0811
3 1 -44.0642 34.0822 43.8414
4 1 -43.1675 33.8352 43.6128
5 1 -42.2964 33.6813 43.2989
6 1 -41.4049 33.4451 43.0064
7 1 -40.6249 33.1601 42.6469
8 1 -39.8213 32.8632 42.2837
9 1 -39.0618 32.4862 41.8058
10 1 -38.2841 32.1989 41.3072
11 1 -37.4745 31.9846 40.8454
12 1 -36.6315 31.7071 40.4719
13 1 -35.7628 31.311 40.139
14 1 -34.9463 31.0549 39.906
15 1 -34.0405 30.8307 39.6519
16 1 -33.1516 30.7263 39.4591
17 1 -32.2153 30.6909 39.3096
18 1 -31.3135 30.5754 39.0217
19 1 -30.455 30.5411 38.6351
20 1 -29.7094 30.3634 38.1395
21 1 -28.9426 30.1463 37.6542
22 1 -28.2288 29.735 37.2224
23 1 -27.5755 29.3209 36.6662
24 1 -26.8695 28.9333 36.1938
25 1 -26.0962 28.5345 35.8174
26 1 -25.3464 28.0333 35.4742
27 1 -24.5438 27.6608 35.1226
28 1 -23.7136 27.4168 34.7343
29 1 -22.8856 27.098 34.3845
30 1 -21.9735 26.9124 34.1265
31 1 -21.0799 26.6703 33.8798
32 1 -20.3531 26.3606 33.3794
33 1 -19.7453 25.9789 32.7694
34 1 -19.1536 25.5459 32.2174
35 1 -18.5142 25.1119 31.6204
36 1 -17.8292 24.7727 31.1227
37 1 -17.282 24.4293 30.4382
38 1 -16.5841 24.2225 29.8682
39 1 -16.045 23.9427 29.1936
40 1 -15.3602 23.7182 28.5895
41 1 -14.6892 23.4966 27.9338
42 1 -14.0565 23.369 27.2877
43 1 -13.3693 23.1914 26.684
44 1 -12.6576 23.0661 26.1112
45 1 -12.0573 22.863 25.4143
46 1 -11.4091 22.641 24.7706
47 1 -10.7402 22.3612 24.1901
48 1 -10.0328 22.0001 23.6483
49 1 -9.31372 21.6688 23.1683
50 1 -8.4943 21.383 22.8475
51 1 -7.73094 21.2858 22.3833
52 1 -6.96271 21.1466 21.8054
53 1 -6.32813 21.0201 21.1588
54 1 -5.64131 20.8955 20.5635
55 1 -4.87386 20.8322 20.0128
56 1 -4.03807 20.6801 19.6065
57 1 -3.26842 20.5071 19.1696
58 1 -2.48793 20.301 18.7591
59 1 -1.7282 19.8955 18.4532
60 1 -0.924894 19.518 18.2045
61 1 -0.160312 19.1131 17.8744
62 1 0.630023 18.7716 17.3928
63 1 1.51788 18.4636 17.0789
64 1 2.46981 18.2738 16.7061
65 1 3.3055 18.1429 16.2167
66 1 4.12909 18.1653 15.7223
67 1 4.83239 18.1948 15.1868
68 1 5.64876 18.2259 14.6731
69 1 6.36456 18.291 14.0995
70 1 7.18141 18.5384 13.6613
71 1 8.00117 18.864 13.2301
72 1 8.73412 19.2857 12.8301
73 1 9.4182 19.6895 12.3291
74 1 10.0721 20.1244 11.8345
75 1 10.7612 20.6172 11.472
76 1 11.4657 21.1296 11.0441
77 1 12.2239 21.5717 10.6624
78 1 12.9859 22.1268 10.5225
79 1 13.7035 22.7016 10.355
80 1 14.4875 23.1817 10.1102
81 1 15.2604 23.7163 9.86682
82 1 16.0524 24.1462 9.54174
83 1 16.8019 24.5381 9.22843
84 1 17.6035 24.8314 8.77254
85 1 18.3263 25.1726 8.40183
86 1 19.1081 25.7202 8.08142
87 1 19.8928 26.2156 7.92823
88 1 20.6644 26.7768 7.81215
89 1 21.3516 27.409 7.66176
90 1 21.9267 28.1946 7.5358
91 1 22.4584 28.9826 7.43224
92 1 22.8378 29.8086 7.30459
93 1 23.265 30.659 7.15879
94 1 23.6574 31.4556 6.87266
95 1 23.9577 32.2405 6.55296
96 1 24.2937 33.0717 6.28837
97 1 24.6625 33.8867 6.11703
98 1 24.919 34.8007 6.04653
99 1 25.1515 35.6656 5.91754
100 1 25.3358 36.6003 5.84009
101 1 25.5746 37.4963 5.67008
102 1 25.7626 38.4065 5.4357
103 1 25.9786 39.281 5.10577
104 1 26.1073 40.1064 4.68677
105 1 26.2418 41.0051 4.31188
106 1 26.2458 41.8547 3.8497
107 1 26.2725 42.693 3.35333
108 1 26.3033 43.5485 2.95727
109 1 26.4031 44.4371 2.67599
110 1 26.3656 45.3444 2.38843
111 1 26.2068 46.2022 2.1376
112 1 26.0181 46.9955 1.75578
113 1 25.8914 47.8003 1.24948
114 1 25.8342 48.561 0.741887
115 1 25.7139 49.2464 0.150323
116 1 25.4766 50.001 -0.420763
117 1 25.2334 50.79 -0.98892
118 1 24.9618 51.3986 -1.6765
119 1 24.6197 51.9452 -2.36613
120 1 24.3361 52.4483 -3.10076
121 1 24.0426 53.0225 -3.80548
122 1 23.653 53.5968 -4.42912
123 1 23.3294 54.0149 -5.23357
124 1 22.9166 54.3289 -6.02067
125 1 22.5076 54.642 -6.7983
126 1 22.0081 54.9492 -7.59979
127 1 21.5307 55.1336 -8.45187
128 1 21.058 55.2813 -9.29793
129 1 20.5977 55.3613 -10.1108
130 1 20.2195 55.5788 -10.9873
131 1 19.7551 55.7137 -11.7165
132 1 19.2402 55.7279 -12.5005
133 1 18.7199 55.6889 -13.2748
134 1 18.1471 55.6488 -14.0384
135 1 17.6787 55.5445 -14.8728
136 1 17.1762 55.5092 -15.6313
137 1 16.6677 55.3237 -16.4324
138 1 16.2063 55.1688 -17.2474
139 1 15.7916 54.9625 -18.0448
140 1 15.423 54.6113 -18.8158
141 1 15.0654 54.2846 -19.6382
142 1 14.7897 53.801 -20.3807
143 1 14.5322 53.3127 -21.1935
144 1 14.1697 52.771 -21.9354
145 1 13.7396 52.3065 -22.725
146 1 13.367 51.8248 -23.4315
147 1 12.9302 51.3831 -24.1355
148 1 12.5414 50.9928 -24.8941
149 1 12.0892 50.5143 -25.5976
150 1 11.707 49.9698 -26.2555
151 1 11.3601 49.3988 -26.9011
152 1 11.1319 48.7674 -27.5375
153 1 10.8989 48.1516 -28.1436
154 1 10.5905 47.4982 -28.7377
155 1 10.3569 46.9622 -29.4756
156 1 10.1708 46.4125 -30.2234
157 1 10.1018 45.8387 -30.9569
158 1 10.0714 45.2784 -31.7575
159 1 9.9319 44.7973 -32.5571
160 1 9.75763 44.1892 -33.2619
161 1 9.63471 43.3869 -33.8494
162 1 9.61263 42.608 -34.3706
163 1 9.6742 41.8709 -34.9541
164 1 9.63935 41.1132 -35.5226
165 1 9.7297 40.3894 -36.1181
166 1 9.91793 39.6769 -36.6769
167 1 10.1053 38.9692 -37.2535
168 1 10.2459 38.1818 -37.7373
169 1 10.397 37.396 -38.2495
170 1 10.5561 36.5235 -38.6423
171 1 10.6083 35.5825 -38.9167
172 1 10.7026 34.6622 -39.1452
173 1 10.8439 33.7119 -39.3286
174 1 10.9574 32.8179 -39.465
175 1 11.1035 31.9081 -39.6966
176 1 11.3081 30.9829 -39.8411
177 1 11.4097 30.0543 -40.0361
178 1 11.379 29.1261 -40.2539
179 1 11.5292 28.2538 -40.609
180 1 11.7061 27.3928 -40.9657
181 1 11.8155 26.5117 -41.3041
182 1 11.8848 25.5553 -41.5709
183 1 12.1177 24.6136 -41.7354
184 1 12.4088 23.7399 -41.8013
185 1 12.5865 22.8257 -41.7724
186 1 12.827 21.9376 -41.793
187 1 13.2147 21.0518 -41.7193
188 1 13.5752 20.2008 -41.6204
189 1 14.0628 19.3937 -41.575
190 1 14.6143 18.6005 -41.605
191 1 15.1469 17.8121 -41.7063
192 1 15.6382 16.9778 -41.8441
193 1 16.126 16.1636 -41.9159
194 1 16.5279 15.3487 -41.9539
195 1 16.9507 14.48 -42.0696
196 1 17.5024 13.691 -41.9914
197 1 18.0209 12.9105 -41.8989
198 1 18.6072 12.2039 -41.7892
199 1 19.2475 11.4575 -41.7332
200 1 19.8839 10.7765 -41.7774
201 1 20.4678 10.0217 -41.8478
202 1 21.06 9.28212 -42.0334
203 1 21.5951 8.512 -42.1464
204 1 22.1096 7.74754 -42.1655
205 1 22.741 6.99047 -41.9939
206 1 23.4006 6.3081 -41.7559
207 1 23.8239 5.52399 -41.408
208 1 24.2073 4.80062 -40.9626
209 1 24.6139 4.02334 -40.655
210 1 24.9941 3.17087 -40.2842
211 1 25.3589 2.38071 -39.8339
212 1 25.672 1.61306 -39.4074
213 1 25.9911 0.814236 -39.0032
214 1 26.1799 -0.0287796 -38.5613
215 1 26.4016 -0.773249 -38.0382
216 1 26.5282 -1.53918 -37.4678
217 1 26.6992 -2.20115 -36.8354
218 1 26.8514 -2.79441 -36.1152
219 1 27.0184 -3.32581 -35.4014
220 1 27.2727 -3.88104 -34.6925
221 1 27.4785 -4.47722 -33.9679
222 1 27.5252 -5.08873 -33.3103
223 1 27.6399 -5.79311 -32.6061
224 1 27.6926 -6.29723 -31.821
225 1 27.7515 -6.78445 -31.0221
226 1 27.7311 -7.02388 -30.1526
227 1 27.757 -7.20065 -29.2604
228 1 27.6946 -7.44633 -28.3613
229 1 27.6476 -7.71689 -27.5086
230 1 27.4481 -7.91537 -26.5806
231 1 27.2894 -8.18416 -25.6817
232 1 27.092 -8.35103 -24.7868
233 1 26.9722 -8.51937 -23.8851
234 1 26.8462 -8.82516 -22.9826
235 1 26.7061 -9.10153 -22.0807
236 1 26.5964 -9.41998 -21.1767
237 1 26.5248 -9.64625 -20.2343
238 1 26.5797 -9.80689 -19.3075
239 1 26.5416 -10.0964 -18.4014
240 1 26.413 -10.3408 -17.4759
241 1 26.0766 -10.5962 -16.5988
242 1 25.8737 -10.8684 -15.7196
243 1 25.5221 -11.1958 -14.9655
244 1 25.2554 -11.5608 -14.1601
245 1 24.8689 -11.9719 -13.4149
246 1 24.4054 -12.3589 -12.6733
247 1 23.8936 -12.5919 -11.8749
248 1 23.357 -12.8337 -11.1712
249 1 22.9397 -13.1164 -10.3805
250 1 22.4687 -13.2912 -9.61343
251 1 21.9787 -13.6039 -8.85482
252 1 21.4854 -14.0018 -8.10197
253 1 20.9694 -14.369 -7.35245
254 1 20.3485 -14.7042 -6.75131
255 1 19.693 -15.0032 -6.101
256 1 19.0423 -15.4139 -5.54723
ITEM: TIMESTEP
2650000
ITEM: NUMBER OF ATOMS
256
ITEM: BOX BOUNDS mm mm mm
-1.2800000000000000e+02 1.2800000000000000e+02
-1.2800000000000000e+02 1.2800000000000000e+02
-1.2800000000000000e+02 1.2800000000000000e+02
ITEM: ATOMS id type x y z
1 1 -40.627 33.5551 51.9276
2 1 -40.1592 33.3772 51.1239
3 1 -39.7035 33.1536 50.2984
4 1 -39.1818 32.9934 49.5601
5 1 -38.6235 32.8002 48.8122
6 1 -38.1369 32.7669 48.0567
7 1 -37.613 32.7282 47.2721
8 1 -37.1604 32.4949 46.5141
9 1 -36.6099 32.1667 45.8271
10 1 -35.9621 31.7757 45.2406
11 1 -35.3275 31.4646 44.7041
12 1 -34.6623 31.0734 44.1973
13 1 -33.8992 30.7598 43.7716
14 1 -33.097 30.3591 43.3752
15 1 -32.3593 29.9134 42.9542
16 1 -31.5001 29.6431 42.4626
17 1 -30.7423 29.435 41.8866
18 1 -29.9974 29.2085 41.3316
19 1 -29.1564 29.1014 40.7613
20 1 -28.4198 28.9639 40.1507
21 1 -27.7363 28.9618 39.5195
22 1 -27.0766 28.9563 38.8578
23 1 -26.478 28.9979 38.1303
24 1 -25.9537 28.9668 37.3182
25 1 -25.3762 28.9699 36.509
26 1 -24.7709 28.9457 35.7585
27 1 -24.1639 28.9197 35.0454
28 1 -23.4357 28.8644 34.389
29 1 -22.6893 28.7736 33.7755
30 1 -21.8339 28.6057 33.3391
31 1 -20.9993 28.2783 32.9695
32 1 -20.2496 27.7965 32.6819
33 1 -19.4813 27.3126 32.4322
34 1 -18.7093 26.8465 32.2583
35 1 -17.961 26.3856 32.115
36 1 -17.1484 25.9559 31.95
37 1 -16.2946 25.5878 31.7032
38 1 -15.4576 25.089 31.4536
39 1 -14.646 24.7069 31.1777
40 1 -13.9093 24.3114 30.7728
41 1 -13.0916 24.058 30.3105
42 1 -12.3586 23.7889 29.7422
43 1 -11.6806 23.5573 29.0891
44 1 -10.9912 23.4553 28.4175
45 1 -10.3985 23.2875 27.6733
46 1 -9.85839 22.9962 26.933
47 1 -9.33072 22.7952 26.1487
48 1 -8.77833 22.6973 25.424
49 1 -8.12176 22.5643 24.7859
50 1 -7.42508 22.3676 24.2198
51 1 -6.74209 22.2142 23.6227
52 1 -6.05765 21.9964 23.0186
53 1 -5.40497 21.8064 22.4037
54 1 -4.74415 21.6622 21.7245
55 1 -4.02578 21.5238 21.0935
56 1 -3.28311 21.3351 20.5167
57 1 -2.63383 21.1719 19.8627
58 1 -1.99421 21.08 19.169
59 1 -1.25809 21.0734 18.6237
60 1 -0.4005 21.137 18.1809
61 1 0.44727 21.2486 17.8478
62 1 1.35416 21.3436 17.4779
63 1 2.19173 21.5283 17.105
64 1 2.97651 21.6949 16.7091
65 1 3.81126 21.8517 16.2824
66 1 4.69058 22.1186 15.84
67 1 5.50624 22.4302 15.4935
68 1 6.30875 22.7091 15.0791
69 1 7.11322 22.9512 14.6341
70 1 7.87719 23.2401 14.1331
71 1 8.60978 23.6621 13.6687
72 1 9.33504 24.0314 13.2067
73 1 10.064 24.449 12.7914
74 1 10.8582 24.8257 12.4214
75 1 11.5868 25.2049 11.9912
76 1 12.2416 25.7161 11.5484
77 1 12.9596 26.2381 11.2787
78 1 13.6984 26.755 11.0549
79 1 14.4989 27.1979 10.8641
80 1 15.348 27.6815 10.773
81 1 16.1836 28.0269 10.6372
82 1 17.0397 28.2949 10.4922
83 1 17.9896 28.657 10.3497
84 1 18.8123 28.9602 10.0841
85 1 19.67 29.2678 9.6995
86 1 20.4672 29.5607 9.33061
87 1 21.2245 29.9258 8.95325
88 1 21.9971 30.2713 8.6058
89 1 22.6225 30.7787 8.1405
90 1 23.2597 31.3447 7.68315
91 1 23.9326 31.8963 7.35986
92 1 24.6572 32.485 7.16213
93 1 25.2839 33.163 7.04333
94 1 25.8601 33.9075 6.91161
95 1 26.3133 34.7079 6.77981
96 1 26.8144 35.5319 6.68404
97 1 27.208 36.3715 6.52319
98 1 27.646 37.2523 6.49026
99 1 27.9881 38.2596 6.39695
100 1 28.2495 39.1671 6.30515
101 1 28.4358 40.0755 6.16242
102 1 28.5049 40.9772 5.96099
103 1 28.4967 41.8578 5.7685
104 1 28.6028 42.7452 5.55584
105 1 28.771 43.6783 5.30911
106 1 28.8394 44.5234 4.94347
107 1 28.7862 45.4079 4.5555
108 1 28.656 46.266 4.08646
109 1 28.5574 47.0709 3.61473
110 1 28.3591 47.8538 3.12261
111 1 28.1021 48.6335 2.65388
112 1 27.7902 49.342 2.07487
113 1 27.4484 49.8712 1.36646
114 1 27.0069 50.2499 0.584456
115 1 26.4302 50.5897 -0.122835
116 1 25.7887 50.7698 -0.832927
117 1 25.1994 51.0466 -1.52714
118 1 24.6331 51.3244 -2.21833
119 1 24.0511 51.5851 -2.89808
120 1 23.4282 51.8254 -3.61242
121 1 22.8188 52.0994 -4.27895
122 1 22.321 52.4701 -4.96269
123 1 21.7254 52.7565 -5.65645
124 1 21.1743 53.057 -6.39962
125 1 20.6467 53.3656 -7.1516
126 1 19.9864 53.6643 -7.68963
127 1 19.2861 53.9673 -8.26596
128 1 18.6795 54.2384 -8.8699
129 1 18.1162 54.6048 -9.5977
130 1 17.4859 54.9164 -10.2904
131 1 17.0299 55.0031 -11.0676
132 1 16.475 55.0632 -11.8592
133 1 15.9275 55.032 -12.6105
134 1 15.4518 55.0042 -13.3994
135 1 14.9779 54.9006 -14.2213
136 1 14.5516 54.8241 -15.0855
137 1 14.1321 54.7274 -15.9112
138 1 13.605 54.6416 -16.6951
139 1 13.1176 54.5639 -17.4837
140 1 12.5707 54.3553 -18.2763
141 1 12.1538 54.1595 -19.1043
142 1 11.8962 53.7888 -19.8973
143 1 11.5723 53.4228 -20.7036
144 1 11.1953 53.0245 -21.4982
145 1 10.7442 52.6855 -22.1966
146 1 10.3632 52.3542 -23.0214
147 1 10.0512 52.0278 -23.8592
148 1 9.66806 51.6941 -24.633
149 1 9.44881 51.226 -25.4286
150 1 9.27049 50.6732 -26.1223
151 1 8.96518 50.1211 -26.7843
152 1 8.64646 49.5173 -27.4536
153 1 8.32171 48.9854 -28.1155
154 1 8.01225 48.448 -28.7244
155 1 7.73541 47.6696 -29.4009
156 1 7.61932 46.9758 -30.0064
157 1 7.53767 46.2306 -30.5463
158 1 7.46896 45.4385 -31.0672
159 1 7.35523 44.6488 -31.5982
160 1 7.30128 43.8033 -32.0384
161 1 7.349 42.9812 -32.4891
162 1 7.27131 42.1228 -32.9211
163 1 7.17425 41.2336 -33.3193
164 1 7.03835 40.4226 -33.8222
165 1 6.96799 39.6422 -34.3282
166 1 7.02033 38.8764 -34.9173
167 1 7.07142 38.1447 -35.4807
168 1 7.21299 37.3322 -35.9271
169 1 7.31234 36.4782 -36.2997
170 1 7.48159 35.6982 -36.7529
171 1 7.72049 34.9967 -37.3094
172 1 7.92446 34.2374 -37.7685
173 1 8.21182 33.4767 -38.2348
174 1 8.64794 32.6848 -38.5598
175 1 9.09913 31.9716 -38.9812
176 1 9.67262 31.3618 -39.4234
177 1 10.2528 30.8171 -39.931
178 1 10.9158 30.291 -40.4179
179 1 11.4711 29.6161 -40.7173
180 1 11.9359 28.8909 -41.094
181 1 12.4077 28.1482 -41.367
182 1 12.9759 27.4315 -41.6441
183 1 13.54 26.7356 -41.9639
184 1 13.9941 25.8827 -42.1852
185 1 14.3242 25.0425 -42.3214
186 1 14.676 24.1936 -42.4609
187 1 15.0908 23.3619 -42.6064
188 1 15.6862 22.5986 -42.7445
189 1 16.2971 21.7951 -42.9193
190 1 16.8729 20.9977 -43.0777
191 1 17.4278 20.2048 -43.1324
192 1 17.9622 19.4469 -43.092
193 1 18.4802 18.635 -43.0397
194 1 19.0266 17.8423 -42.9233