ITEM: TIMESTEP
290000
ITEM: NUMBER OF ATOMS
256
ITEM: BOX BOUNDS mm mm mm
-1.2800000000000000e+02 1.2800000000000000e+02
-1.2800000000000000e+02 1.2800000000000000e+02
-1.2800000000000000e+02 1.2800000000000000e+02
ITEM: ATOMS id type x y z
1 1 -28.7198 19.0027 -0.206371
2 1 -29.0154 19.857 -0.285329
3 1 -29.2051 20.741 -0.0870855
4 1 -29.9493 21.2755 -0.278497
5 1 -30.3661 22.0788 -0.563602
6 1 -31.0878 22.0234 -1.14013
7 1 -31.0444 21.6792 -2.03137
8 1 -31.3261 21.1302 -2.749
9 1 -30.949 20.3401 -3.12692
10 1 -31.2348 19.4612 -3.39945
11 1 -31.2454 18.8349 -4.04076
12 1 -32.0973 19.1488 -4.31622
13 1 -32.4265 19.959 -4.52177
14 1 -32.592 19.9389 -5.45465
15 1 -31.7624 19.5597 -5.60987
16 1 -32.0123 19.0336 -6.40263
17 1 -32.5348 18.8993 -5.60537
18 1 -31.7603 18.5664 -5.16348
19 1 -31.836 17.6375 -5.48022
20 1 -32.437 16.9477 -5.587
21 1 -32.9443 16.6642 -4.81589
22 1 -33.5339 16.5446 -4.05595
23 1 -34.2167 16.0186 -3.53349
24 1 -34.9838 15.6271 -3.20392
25 1 -34.5032 15.7215 -2.38441
26 1 -34.018 16.2002 -1.73498
27 1 -33.5359 16.1467 -0.90734
28 1 -33.3848 15.2485 -1.07651
29 1 -34.2855 15.2811 -0.823927
30 1 -34.707 15.1878 0.0744331
31 1 -35.4241 15.71 0.451009
32 1 -35.6981 15.911 -0.404224
33 1 -35.5324 15.7586 -1.33971
34 1 -36.2051 15.3113 -1.82608
35 1 -35.7796 14.4361 -1.8257
36 1 -35.0853 14.0029 -1.39364
37 1 -35.3262 13.1248 -1.2103
38 1 -34.7276 12.4611 -1.49592
39 1 -34.0534 12.0267 -0.931454
40 1 -34.3652 11.1986 -0.777361
41 1 -34.5329 10.2623 -0.72352
42 1 -34.805 9.3975 -0.392286
43 1 -35.0771 8.70032 0.155611
44 1 -34.2686 8.86221 0.602333
45 1 -34.3117 8.28273 1.36796
46 1 -34.3192 7.67597 2.07741
47 1 -34.1512 6.76948 1.80174
48 1 -34.5231 5.96928 1.743
49 1 -35.2968 5.56024 2.07034
50 1 -34.6035 5.30522 2.60278
51 1 -34.5667 4.42415 3.16262
52 1 -33.8499 3.9141 3.41793
53 1 -33.8527 3.12461 2.83712
54 1 -33.979 3.14308 1.87079
55 1 -33.6721 3.59859 1.13898
56 1 -32.8938 4.14539 1.16324
57 1 -32.8599 3.58767 0.471332
58 1 -32.8125 3.24852 -0.388865
59 1 -31.9154 3.01075 -0.612905
60 1 -31.5935 2.17307 -0.85595
61 1 -31.5631 1.25104 -0.978377
62 1 -30.8549 0.837413 -1.49874
63 1 -29.9447 0.683878 -1.17699
64 1 -30.4185 0.211655 -0.527984
65 1 -29.7397 0.514022 0.064687
66 1 -30.1529 0.629188 0.864953
67 1 -30.804 1.15739 1.28094
68 1 -31.386 1.64268 0.845289
69 1 -31.2055 2.36226 0.333212
70 1 -31.7865 3.0674 0.472751
71 1 -31.0981 3.71064 0.678117
72 1 -30.8199 4.54506 1.03884
73 1 -29.9727 4.87649 1.24792
74 1 -29.3444 4.46792 1.73309
75 1 -28.7829 3.92999 2.24398
76 1 -27.9002 4.16798 2.30005
77 1 -27.6826 3.46906 2.89101
78 1 -27.4681 4.17716 3.51617
79 1 -27.0948 3.55242 4.19994
80 1 -26.3022 2.9361 4.20546
81 1 -25.5931 2.47216 4.5463
82 1 -25.9398 1.60965 4.84314
83 1 -26.405 2.03602 5.49432
84 1 -25.9538 2.11277 6.36324
85 1 -25.489 1.4049 6.68856
86 1 -24.953 1.84195 6.07526
87 1 -24.2299 2.37039 5.71132
88 1 -23.3813 2.76337 5.64077
89 1 -22.4982 3.05646 5.85104
90 1 -21.8783 2.39793 5.9764
91 1 -21.6395 1.60883 6.43672
92 1 -21.0544 1.59645 5.6848
93 1 -21.1652 0.667174 5.67236
94 1 -21.1982 0.34126 4.82552
95 1 -21.3376 0.0797079 3.92681
96 1 -21.7312 -0.733494 4.18961
97 1 -20.9185 -1.15734 4.38272
98 1 -20.8489 -1.63144 5.20013
99 1 -20.5615 -2.40008 5.73171
100 1 -19.8833 -2.63714 5.15435
101 1 -19.8162 -3.35892 5.72817
102 1 -19.3365 -2.73133 6.20114
103 1 -18.8969 -2.1702 6.83302
104 1 -18.2433 -2.61559 6.43204
105 1 -18.0012 -2.66291 7.35859
106 1 -18.479 -3.14677 8.0217
107 1 -17.5761 -3.01278 8.27051
108 1 -16.7008 -2.78833 8.17831
109 1 -16.9868 -2.95565 7.32163
110 1 -17.39 -3.50519 6.68079
111 1 -16.9568 -4.25118 6.38142
112 1 -16.2797 -4.22416 5.76022
113 1 -15.7029 -3.78767 5.11069
114 1 -16.4169 -4.09039 4.59891
115 1 -15.7499 -4.25067 3.92479
116 1 -16.4678 -4.25185 3.33486
117 1 -16.3865 -4.92897 2.65498
118 1 -15.9756 -5.59916 2.14378
119 1 -15.0557 -5.55441 2.04462
120 1 -14.9048 -5.49588 1.14908
121 1 -14.0138 -5.18027 0.967595
122 1 -13.2787 -5.47859 1.42578
123 1 -12.5348 -5.75035 1.94896
124 1 -11.9174 -5.38657 1.34879
125 1 -11.3401 -5.53016 0.65812
126 1 -10.5646 -5.58399 0.153672
127 1 -9.75439 -5.17279 -0.152714
128 1 -8.98693 -4.76763 -0.581015
129 1 -8.1385 -4.85308 -1.0057
130 1 -7.27906 -5.12453 -1.1261
131 1 -6.74131 -4.93725 -0.337209
132 1 -7.03863 -4.81676 0.519879
133 1 -6.20845 -4.35286 0.578499
134 1 -6.27241 -3.48449 0.834952
135 1 -5.8085 -2.68548 0.761035
136 1 -6.16001 -1.88313 0.347173
137 1 -5.69231 -1.70355 -0.498488
138 1 -5.5915 -0.937991 -0.961456
139 1 -4.79105 -0.953984 -0.464916
140 1 -3.92577 -1.27614 -0.58188
141 1 -4.01749 -2.02687 -0.0893565
142 1 -3.69663 -1.96552 0.774177
143 1 -3.05106 -2.48896 1.33362
144 1 -3.131 -1.97447 2.06952
145 1 -2.35946 -1.46517 2.31936
146 1 -1.48624 -1.86172 2.54256
147 1 -1.47384 -2.84436 2.52503
148 1 -1.51593 -3.46831 1.90481
149 1 -0.834181 -4.07963 2.112
150 1 -0.113117 -3.32628 2.14765
151 1 0.471267 -3.4771 1.41048
152 1 1.33722 -3.32781 1.70573
153 1 1.65702 -2.5148 1.17966
154 1 2.21607 -2.53873 0.379458
155 1 3.1613 -2.74385 0.235896
156 1 3.92476 -2.72046 0.821528
157 1 3.97877 -3.15492 1.71008
158 1 4.19541 -3.36457 2.63437
159 1 4.72493 -4.12914 2.77263
160 1 5.19058 -4.44267 3.47878
161 1 6.06998 -4.45307 3.41798
162 1 7.03802 -4.39026 3.17263
163 1 7.66247 -4.92819 3.578
164 1 8.58917 -4.85058 3.50965
165 1 9.30517 -4.30354 3.19263
166 1 9.34232 -4.33308 2.20332
167 1 9.892 -3.61025 2.12041
168 1 9.42584 -2.85496 2.34919
169 1 9.90476 -2.3312 2.92437
170 1 10.7164 -2.43244 2.46028
171 1 11.1885 -1.66437 2.69146
172 1 11.9621 -1.12939 2.51818
173 1 11.6725 -0.289783 2.13599
174 1 12.3794 0.00983338 1.65961
175 1 12.978 0.134097 0.9786
176 1 12.2324 0.711638 0.877734
177 1 12.9018 1.25748 0.471695
178 1 13.6327 1.65411 0.878756
179 1 14.2232 1.07698 0.405571
180 1 14.5001 0.406618 -0.235888
181 1 15.3453 0.588442 -0.577147
182 1 15.8865 1.01887 0.0499362
183 1 16.1054 1.36487 -0.847586
184 1 16.6118 1.1825 -1.65733
185 1 16.9972 0.589529 -1.11802
186 1 17.9239 0.589 -1.14933
187 1 18.8751 0.437877 -1.08504
188 1 19.605 0.244306 -1.64455
189 1 20.5368 0.429968 -1.5718
190 1 20.8833 1.1709 -2.13186
191 1 21.6615 1.33328 -2.66934
192 1 22.5102 1.23167 -2.17992
193 1 23.0095 0.501468 -1.75489
194 1 22.5536 -0.275577 -1.97479
195 1 23.1568 -0.541959 -2.64512
196 1 23.8095 0.0856407 -3.03929
197 1 24.0874 0.811911 -2.45842
198 1 24.0946 1.66802 -2.8278
199 1 24.2528 2.32241 -2.15437
200 1 24.8597 2.95245 -1.87788
201 1 25.2246 2.67792 -2.68733
202 1 26.0912 2.55365 -2.85208
203 1 26.7839 2.83808 -2.28277
204 1 27.4939 3.14691 -1.63973
205 1 27.7847 3.35083 -0.757058
206 1 27.6379 3.48768 0.127549
207 1 27.5227 2.63813 0.517566
208 1 27.3168 1.96376 1.10955
209 1 27.9645 1.90498 1.78462
210 1 28.0754 1.0388 2.13457
211 1 27.2615 1.47729 2.51473
212 1 27.4539 1.28578 3.37414
213 1 27.6034 1.07592 4.26888
214 1 28.1342 1.82003 4.56808
215 1 28.1136 2.74749 4.576
216 1 28.789 2.49149 5.18633
217 1 29.4736 2.87839 4.64259
218 1 30.058 3.11928 3.94446
219 1 30.7763 3.5384 3.54212
220 1 31.562 3.47514 3.02287
221 1 32.0941 3.68719 2.27624
222 1 32.5712 4.49842 2.05965
223 1 33.2445 3.84342 1.88501
224 1 33.4917 3.03388 1.41904
225 1 33.0292 2.50946 0.691564
226 1 32.2332 2.57998 0.13601
227 1 32.0895 2.26973 -0.739224
228 1 32.4088 1.80354 -1.51292
229 1 33.2142 2.27593 -1.4951
230 1 33.5457 3.15369 -1.42357
231 1 33.6232 2.88669 -2.35032
232 1 33.4295 3.29606 -3.17357
233 1 33.7692 4.12859 -3.43193
234 1 33.299 4.95095 -3.63397
235 1 32.499 5.3414 -3.72441
236 1 32.1546 6.24244 -3.75694
237 1 32.7785 6.9081 -3.85207
238 1 33.2773 7.30769 -3.07959
239 1 33.5321 6.41685 -3.31233
240 1 34.2014 5.99415 -2.83623
241 1 34.2483 5.07423 -2.96081
242 1 34.7115 4.91172 -3.79749
243 1 35.3651 5.02712 -4.41343
244 1 35.4032 5.21029 -5.29721
245 1 36.0546 5.19918 -5.94442
246 1 36.6013 5.10103 -6.75707
247 1 36.6982 5.53016 -7.58007
248 1 36.9528 5.68917 -8.47179
249 1 36.1548 5.41393 -8.9565
250 1 35.3688 5.35905 -8.4773
251 1 34.5704 5.49798 -8.95885
252 1 34.8198 5.98085 -9.71664
253 1 35.5895 6.55618 -9.9064
254 1 36.4621 6.68582 -9.45791
255 1 37.2732 6.5082 -9.931
256 1 37.1703 5.78876 -10.5426
ITEM: TIMESTEP
300000
ITEM: NUMBER OF ATOMS
256
ITEM: BOX BOUNDS mm mm mm
-1.2800000000000000e+02 1.2800000000000000e+02
-1.2800000000000000e+02 1.2800000000000000e+02
-1.2800000000000000e+02 1.2800000000000000e+02
ITEM: ATOMS id type x y z
1 1 -43.5339 24.2783 -5.76093
2 1 -42.9237 23.7969 -5.1958
3 1 -43.5471 23.9526 -4.50132
4 1 -44.1501 23.3306 -4.77047
5 1 -43.6342 22.9792 -5.50387
6 1 -44.2806 22.2726 -5.62998
7 1 -44.4597 22.543 -6.54803
8 1 -43.553 22.2248 -6.53534
9 1 -43.0722 22.1858 -7.33792
10 1 -42.6318 21.2743 -7.26097
11 1 -42.7297 20.4135 -6.86822
12 1 -42.0223 19.8246 -7.1955
13 1 -41.1375 19.9699 -6.73051
14 1 -41.5018 20.498 -6.04003
15 1 -42.1443 21.1829 -5.90543
16 1 -43.0267 21.016 -5.54591
17 1 -43.3014 20.5448 -4.74142
18 1 -43.3887 19.8321 -4.12459
19 1 -43.1859 19.5687 -3.25604
20 1 -42.1887 19.6558 -3.28607
21 1 -41.6047 19.859 -4.00733
22 1 -40.7428 20.112 -3.66549
23 1 -40.9839 19.3222 -3.16079
24 1 -40.4491 18.5415 -3.19555
25 1 -39.6209 18.4164 -3.50012
26 1 -39.3273 17.5335 -3.52126
27 1 -39.1048 16.6657 -3.7801
28 1 -38.6389 15.953 -4.19484
29 1 -37.8681 16.4278 -4.0892
30 1 -37.0078 16.3456 -4.37371
31 1 -36.4976 15.8059 -3.82904
32 1 -36.0458 15.3171 -3.16764
33 1 -36.2353 14.9972 -2.25677
34 1 -36.5824 14.3949 -1.63843
35 1 -36.7736 13.4774 -1.57878
36 1 -36.6542 12.5224 -1.34147
37 1 -35.7652 12.2151 -1.40166
38 1 -35.4439 11.3878 -1.86059
39 1 -35.3111 11.3233 -0.945924
40 1 -36.0471 11.3804 -0.336356
41 1 -36.5558 11.1347 0.426353
42 1 -37.2375 10.5172 0.527524
43 1 -37.1792 10.3934 1.46054
44 1 -37.9944 9.9878 1.74652
45 1 -38.15 9.39703 0.983002
46 1 -37.389 9.06818 0.682947
47 1 -37.4326 9.24434 -0.219114
48 1 -36.6808 9.58643 -0.5607
49 1 -36.0025 8.96535 -0.442821
50 1 -35.8101 8.49625 0.355107
51 1 -35.2336 7.96642 -0.179495
52 1 -34.95 7.09935 0.027284
53 1 -35.1639 6.24873 -0.287437
54 1 -35.2143 5.53497 0.304074
55 1 -35.682 4.75343 0.545545
56 1 -36.2042 4.16141 -0.0522749
57 1 -35.9423 3.62999 0.68438
58 1 -35.7164 3.57174 1.61198
59 1 -35.1546 3.7427 2.31914
60 1 -35.7096 3.82876 3.05621
61 1 -35.3931 4.71405 3.18601
62 1 -34.6313 4.22449 3.59511
63 1 -33.8708 3.74633 3.36662
64 1 -32.9863 3.92911 3.15007
65 1 -32.1048 4.13891 2.72366
66 1 -31.604 4.13934 1.9513
67 1 -30.8086 3.68086 2.07012
68 1 -30.1395 4.37193 2.35188
69 1 -29.6986 4.11106 3.14805
70 1 -30.1588 4.72897 3.66272
71 1 -30.9042 4.50767 4.24509
72 1 -31.2325 4.43565 5.15252
73 1 -30.3718 4.82497 5.31028
74 1 -29.5061 5.1196 5.10719
75 1 -28.9156 5.14245 4.35019
76 1 -29.0191 5.49196 3.49847
77 1 -28.1894 5.81168 3.17921
78 1 -27.8206 5.42 4.02405
79 1 -27.2445 6.08 4.08905
80 1 -26.6358 5.76929 3.49605
81 1 -26.0131 6.04923 4.07807
82 1 -25.2504 5.49722 4.37556
83 1 -24.7022 5.98064 4.97538
84 1 -24.5868 5.19117 5.44422
85 1 -24.2433 4.54315 4.90608
86 1 -24.6312 4.015 5.56224
87 1 -24.8845 4.04421 6.51744
88 1 -24.3295 3.33677 6.63219
89 1 -23.8981 2.49325 6.53929
90 1 -23.7595 1.60109 6.88914
91 1 -23.5083 1.32126 6.02992
92 1 -23.1216 0.688966 5.37515
93 1 -22.986 1.27414 4.70263
94 1 -22.523 1.19507 3.92166
95 1 -22.2656 1.71355 3.17119
96 1 -21.5649 1.06217 3.16068
97 1 -20.664 0.855811 3.26393
98 1 -20.0635 0.118235 3.09503
99 1 -19.4717 0.923548 2.9015
100 1 -18.5898 0.828823 2.50804
101 1 -17.7538 0.484336 2.23513
102 1 -18.221 0.0621609 2.9269
103 1 -17.7183 0.0826846 3.69861
104 1 -16.9774 0.435302 3.32724
105 1 -16.0537 0.452389 3.63735
106 1 -15.9728 1.36755 3.29487
107 1 -15.5432 2.04934 3.71305
108 1 -14.9716 2.62574 3.21129
109 1 -14.6043 2.0762 2.52654
110 1 -13.7475 1.70705 2.64836
111 1 -13.3998 1.35317 3.50477
112 1 -13.4667 1.06215 4.38226
113 1 -14.2672 0.918427 4.86735
114 1 -14.2919 0.010868 4.96936
115 1 -13.5461 -0.36786 5.28051
116 1 -12.91 -0.612169 5.93597
117 1 -12.5425 -1.35721 5.48053
118 1 -12.4326 -1.43135 4.53783
119 1 -11.4686 -1.4765 4.48968
120 1 -10.7624 -1.64412 5.13962
121 1 -9.99186 -1.98876 4.80027
122 1 -9.85728 -1.85191 3.85632
123 1 -9.1785 -1.82357 3.15977
124 1 -8.2843 -2.14266 3.20469
125 1 -7.63635 -2.75632 3.51858
126 1 -7.2575 -1.8974 3.43113
127 1 -7.57008 -1.56773 2.61148
128 1 -7.58313 -1.57935 1.65511
129 1 -7.73723 -1.32391 0.735834
130 1 -7.73797 -2.27064 0.552806
131 1 -7.18375 -2.73504 0.00344054
132 1 -7.26094 -3.0935 -0.818943
133 1 -7.63391 -2.42794 -1.47152
134 1 -6.86279 -2.17593 -1.96396
135 1 -6.09014 -2.02609 -2.46444
136 1 -5.38464 -2.56125 -2.89915
137 1 -4.66814 -2.27281 -3.35058
138 1 -4.40374 -3.10592 -3.54973
139 1 -4.2045 -3.9641 -3.96314
140 1 -3.66092 -4.60015 -4.35368
141 1 -3.80988 -4.91416 -5.23246
142 1 -3.9419 -5.78019 -4.92624
143 1 -3.06258 -5.8833 -5.30242
144 1 -2.28143 -5.73943 -4.77052
145 1 -1.44648 -5.94438 -4.5171
146 1 -0.87304 -5.59627 -5.12515
147 1 -0.011972 -5.4873 -4.72203
148 1 0.465605 -5.90905 -4.04045
149 1 1.22054 -5.51315 -3.64522
150 1 0.942127 -5.59339 -2.75527
151 1 0.277029 -5.57882 -2.13
152 1 -0.655245 -5.5956 -2.34581
153 1 -0.577323 -6.61302 -2.36185
154 1 0.161298 -6.7942 -1.79061
155 1 1.06806 -6.85277 -2.11701
156 1 1.7751 -7.50252 -2.0876
157 1 2.58035 -6.99922 -1.94848
158 1 3.27716 -7.04891 -2.54852
159 1 3.86603 -6.32396 -2.34633
160 1 3.23633 -5.82528 -2.86975
161 1 3.09559 -5.92588 -3.72092
162 1 3.88545 -5.36494 -3.82594
163 1 4.0638 -4.46898 -3.83615
164 1 5.00925 -4.34392 -3.91067
165 1 4.99697 -4.7682 -3.00288
166 1 5.61775 -4.23457 -2.50643
167 1 5.90716 -4.50382 -1.65609
168 1 5.74143 -3.92412 -0.986992
169 1 6.54108 -3.70371 -1.38392
170 1 6.60925 -3.14909 -2.16067
171 1 7.50507 -3.02338 -2.20975
172 1 7.50585 -2.22257 -2.67196
173 1 8.1905 -1.72777 -2.154
174 1 8.62117 -2.5013 -1.78818
175 1 9.20778 -2.15927 -1.08811
176 1 9.76292 -1.78252 -1.75716
177 1 10.3305 -2.09225 -1.10247
178 1 10.7409 -1.81495 -0.303292
179 1 11.674 -2.10622 -0.164052
180 1 12.1121 -2.82966 -0.506564
181 1 13.0839 -2.90898 -0.503295
182 1 13.994 -2.95466 -0.424821
183 1 14.7682 -3.47571 -0.459083
184 1 15.6394 -3.15907 -0.45552
185 1 15.8409 -2.54141 0.245437
186 1 16.0301 -2.28006 1.13073
187 1 15.506 -1.46654 0.924485
188 1 15.6269 -0.55221 0.852847
189 1 16.1659 -0.647012 0.137656
190 1 15.6038 -1.23807 -0.339883
191 1 15.7249 -0.777139 -1.1992
192 1 15.9964 -0.0647911 -0.666111
193 1 16.8429 0.242109 -0.537911
194 1 17.5437 -0.428398 -0.539297
195 1 18.2243 -1.08573 -0.529639
196 1 18.4437 -1.95 -0.748177
197 1 18.2856 -2.73861 -0.284323
198 1 18.8742 -2.98089 0.431811
199 1 18.78 -3.85383 0.813998
200 1 19.6327 -3.53104 0.865798
201 1 20.4249 -3.065 0.896713
202 1 20.7374 -2.20132 0.567429
203 1 21.4301 -1.92713 0.0299265
204 1 21.3867 -1.16559 0.657851
205 1 21.7702 -1.15061 1.46801
206 1 22.6491 -1.3617 1.36132
207 1 23.257 -0.670469 1.62276
208 1 22.7759 -0.284321 2.40557
209 1 23.3685 -0.111122 3.14844
210 1 24.0039 -0.757402 3.2091
211 1 24.5412 -1.29739 2.67054
212 1 25.4851 -1.35943 2.69973
213 1 26.4886 -1.60752 2.77496
214 1 27.2928 -1.18624 2.42652
215 1 28.034 -0.854698 1.95256
216 1 28.8221 -0.644212 1.4207
217 1 28.872 -0.606056 0.445875
218 1 28.8156 -0.215546 -0.376818
219 1 28.2739 -0.359366 -1.09422
220 1 28.7753 0.217422 -1.66861
221 1 29.5342 0.312551 -2.2899
222 1 29.9678 0.815401 -2.93884
223 1 30.584 1.31023 -3.39871
224 1 30.8348 2.17713 -3.52929
225 1 31.4426 2.57346 -4.20674
226 1 31.8936 3.39839 -4.452
227 1 31.906 4.31569 -4.6682
228 1 32.4995 4.98492 -4.42425
229 1 32.7792 5.91896 -4.25723
230 1 33.577 6.2475 -3.8417
231 1 34.4303 6.62124 -3.80114
232 1 35.1296 7.18856 -3.48782
233 1 35.0917 8.08548 -3.24679
234 1 35.9257 8.18542 -2.86948
235 1 36.0833 9.10412 -3.10481
236 1 35.7024 9.87074 -3.50095
237 1 34.9026 9.64922 -4.0162
238 1 34.5493 10.0705 -4.79987
239 1 34.5705 9.41716 -5.52417
240 1 34.1382 9.49849 -6.38174
241 1 34.1473 8.76539 -6.95474
242 1 34.9546 8.28151 -7.29106
243 1 35.4468 7.48964 -7.48331
244 1 35.2426 6.61855 -7.8008
245 1 35.6128 6.14825 -7.11001
246 1 35.9712 5.4795 -7.68998
247 1 36.7299 5.87911 -7.36598
248 1 37.2483 5.46722 -6.68861
249 1 37.7745 5.1016 -5.99296
250 1 37.9104 4.16441 -5.89594
251 1 38.5863 3.63771 -6.35377
252 1 38.0718 4.08678 -6.98822
253 1 38.3366 4.95097 -7.04927
254 1 38.4428 5.78616 -7.4054
255 1 38.1109 6.4847 -7.92482
256 1 37.2301 6.88374 -8.11256
ITEM: TIMESTEP
310000
ITEM: NUMBER OF ATOMS
256
ITEM: BOX BOUNDS mm mm mm
-1.2800000000000000e+02 1.2800000000000000e+02
-1.2800000000000000e+02 1.2800000000000000e+02
-1.2800000000000000e+02 1.2800000000000000e+02
ITEM: ATOMS id type x y z
1 1 -47.6193 21.8784 -7.49428
2 1 -48.2404 22.1628 -8.12698
3 1 -47.5021 22.7399 -8.24538
4 1 -47.7005 23.2148 -7.46358
5 1 -47.5258 23.2754 -6.52944
6 1 -46.8089 23.0085 -6.02213
7 1 -45.8985 23.0131 -6.05811
8 1 -44.9405 22.783 -5.76049
9 1 -44.1738 22.5255 -5.20382
10 1 -44.1023 21.5727 -5.22515
11 1 -43.9058 20.9348 -5.89229
12 1 -42.9881 21.0486 -6.25443
13 1 -42.2446 20.7752 -5.79552
14 1 -42.2059 19.935 -5.37779
15 1 -41.9191 19.1479 -4.89809
16 1 -42.0045 18.532 -4.23852
17 1 -42.183 17.8048 -3.67721
18 1 -42.6632 16.9169 -3.71527
19 1 -43.299 16.9867 -3.0021
20 1 -42.5456 16.5312 -2.64071
21 1 -42.7117 15.8884 -2.02015
22 1 -43.108 15.0915 -1.55351
23 1 -43.2359 14.5369 -0.791215
24 1 -42.7804 13.9298 -0.20654
25 1 -42.3858 14.4763 0.436397
26 1 -41.7238 14.1048 0.993871
27 1 -40.9922 13.9265 0.490126
28 1 -40.3712 14.6149 0.873022
29 1 -39.6324 14.6233 1.42758
30 1 -39.1348 13.8738 1.79784
31 1 -38.2535 13.6457 1.51301
32 1 -37.6325 13.1019 2.01807
33 1 -37.1791 12.7894 2.75687
34 1 -36.2802 12.5379 2.57939
35 1 -35.6417 11.8923 2.86039
36 1 -34.94 12.5235 2.67925
37 1 -34.1601 12.8914 2.87709
38 1 -34.0151 12.2854 3.56501
39 1 -33.7021 11.536 3.99486
40 1 -34.4303 11.3722 3.47074
41 1 -34.1329 11.2753 2.53558
42 1 -33.617 10.4525 2.76132
43 1 -33.6385 10.1297 3.64398
44 1 -34.1403 9.41671 3.3343
45 1 -34.1074 8.82225 4.11043
46 1 -33.4843 8.24995 3.5792
47 1 -32.6359 8.35161 3.25003
48 1 -31.8529 8.77746 2.81868
49 1 -31.0699 8.8675 2.16405
50 1 -31.085 7.9901 1.75829
51 1 -30.4278 8.19972 1.0896
52 1 -29.5596 8.50354 1.31327
53 1 -29.0802 7.72519 0.965235
54 1 -29.0352 6.79569 0.710009
55 1 -29.5367 6.44454 0.03721
56 1 -29.281 5.58339 0.22788
57 1 -28.7051 4.83408 0.545033
58 1 -28.0176 4.1664 0.847919
59 1 -28.1757 3.78316 -0.0427284
60 1 -28.3774 2.87981 -0.287626
61 1 -27.5489 2.81924 0.071106
62 1 -27.6877 2.68526 0.994438
63 1 -27.019 3.25743 1.37761
64 1 -26.145 2.87376 1.40813
65 1 -25.7804 2.07516 1.78458
66 1 -25.4899 1.76286 2.62367
67 1 -25.387 1.609 3.51488
68 1 -25.0267 2.16351 4.2371
69 1 -24.7827 1.67882 5.01412
70 1 -24.3143 2.35671 5.50257
71 1 -24.0533 3.02091 4.93686
72 1 -23.2891 3.52522 4.7558
73 1 -22.5289 3.55642 5.37235
74 1 -21.7968 4.13497 5.17505
75 1 -21.0665 4.03102 4.57566
76 1 -20.9659 4.91745 5.09187
77 1 -21.1199 5.61627 5.68587
78 1 -20.2004 5.43438 5.80538
79 1 -19.8612 5.54199 6.70128
80 1 -20.4767 5.88786 7.41999
81 1 -20.0045 6.63501 7.02312
82 1 -20.2591 6.73163 6.15533
83 1 -19.6134 6.5424 5.50095
84 1 -20.1882 6.90114 4.81972
85 1 -20.7875 6.61264 4.14168
86 1 -20.62 6.20297 3.33366
87 1 -20.4147 6.58858 2.48112
88 1 -19.7623 7.23762 2.24857
89 1 -18.9199 6.84128 2.18708
90 1 -18.0477 6.78215 2.53649
91 1 -17.7223 5.94207 2.75625
92 1 -18.3891 5.4352 3.22107
93 1 -18.196 4.59308 3.57627
94 1 -17.9726 4.55723 4.48555
95 1 -17.5836 3.72996 4.6412
96 1 -17.0611 4.05157 5.37003
97 1 -16.2794 3.55581 5.2301
98 1 -16.124 2.71819 4.92829
99 1 -16.791 2.04353 4.78965
100 1 -17.6715 2.29462 4.75167
101 1 -17.8652 1.31001 4.62496
102 1 -17.3054 1.29442 3.82495
103 1 -17.171 2.00895 3.26907
104 1 -16.6055 2.12904 2.55383
105 1 -16.2978 2.65733 1.89193
106 1 -16.4367 1.89939 1.35371
107 1 -16.591 1.12913 0.871915
108 1 -16.0516 0.83233 0.134481
109 1 -15.7847 0.895536 -0.792233
110 1 -15.5075 0.854693 -1.6475
111 1 -14.7773 1.34339 -1.64524
112 1 -14.3311 2.14912 -1.56082
113 1 -13.503 2.04364 -2.02068
114 1 -12.7228 2.35669 -1.68236
115 1 -12.6142 2.00262 -0.777866
116 1 -12.407 1.66718 0.0711893
117 1 -12.1095 0.918166 0.590331
118 1 -12.0526 0.338209 1.2961
119 1 -11.233 0.0576256 0.84938
120 1 -10.528 0.0242747 1.44985
121 1 -9.82491 0.505796 1.12978
122 1 -8.93545 0.521523 1.32469
123 1 -9.1408 -0.192297 1.93442
124 1 -8.28049 0.210467 2.052
125 1 -7.33982 0.0952893 2.19233
126 1 -6.71137 0.0688777 1.51767
127 1 -6.3748 -0.0147087 0.661339
128 1 -5.49502 -0.101728 0.259544
129 1 -4.66861 -0.292855 -0.111614
130 1 -4.00558 0.125955 -0.672497
131 1 -4.57191 0.02471 -1.42955
132 1 -5.19848 0.653223 -1.76819
133 1 -5.77352 0.00474091 -2.00969
134 1 -6.43575 -0.652929 -2.00483
135 1 -6.05847 -1.39497 -2.45964
136 1 -5.19802 -1.59411 -2.68816
137 1 -4.83639 -2.46474 -2.59035
138 1 -4.37036 -3.00678 -2.01239
139 1 -3.453 -2.73671 -1.76466
140 1 -2.73361 -2.95088 -1.17256
141 1 -1.93261 -3.24317 -1.63439
142 1 -2.13808 -4.12568 -2.16961
143 1 -2.84148 -4.28565 -2.79484
144 1 -3.63933 -4.06108 -3.29253
145 1 -3.51724 -4.22412 -4.24937
146 1 -2.86355 -3.59344 -4.01927
147 1 -2.0639 -4.04107 -4.02623
148 1 -1.6638 -4.45579 -4.71192
149 1 -1.36156 -4.94314 -5.47273
150 1 -0.607146 -5.37109 -5.77886
151 1 -0.0913235 -5.93428 -5.18453
152 1 0.43577 -6.39441 -5.74699
153 1 1.19747 -5.99725 -5.33496
154 1 1.2624 -6.88143 -4.93286
155 1 2.08725 -6.90745 -4.39257
156 1 2.29831 -6.31207 -5.05766
157 1 2.14157 -5.78329 -5.80173
158 1 2.08252 -5.1782 -6.4718
159 1 2.71415 -5.03503 -7.08908
160 1 3.64405 -5.03844 -7.09018
161 1 3.93431 -4.19319 -7.36053
162 1 4.6209 -4.43934 -6.68708
163 1 4.67439 -3.4996 -6.5549
164 1 5.54134 -3.13064 -6.49059
165 1 4.98551 -2.39394 -6.28396
166 1 5.03385 -2.25756 -5.39552
167 1 5.68828 -2.40683 -4.70118
168 1 6.37463 -1.92532 -4.2922
169 1 7.20345 -1.60634 -4.59608
170 1 7.70136 -0.794375 -4.42315
171 1 8.30732 -1.29427 -3.899
172 1 8.26411 -0.607819 -3.24459
173 1 8.73908 -0.79333 -2.52908
174 1 8.81712 0.0394865 -2.13401
175 1 9.65919 0.423568 -1.8912
176 1 9.89883 0.456166 -2.79135
177 1 10.6126 -0.252936 -2.6538
178 1 11.5173 -0.454746 -2.94995
179 1 12.3269 -0.191094 -2.49069
180 1 12.9488 -0.420397 -1.88154
181 1 13.834 -0.742965 -1.79758
182 1 14.0405 -1.52279 -1.33648
183 1 14.649 -2.0043 -1.91754
184 1 15.2775 -2.70578 -1.91892
185 1 15.8487 -3.4281 -1.98483
186 1 16.5824 -3.27299 -1.36543
187 1 17.4089 -2.76561 -1.33905
188 1 17.6442 -1.97067 -0.871577
189 1 17.4788 -1.06291 -0.988086
190 1 17.9655 -0.258384 -0.849395
191 1 17.9668 0.399745 -1.54798
192 1 18.7751 -0.0242453 -1.77535
193 1 18.9128 -0.949125 -1.40171
194 1 19.0231 -0.907357 -0.457397
195 1 19.2637 -1.771 -0.158197
196 1 19.8003 -1.6653 -0.934379
197 1 20.2836 -1.60209 -1.72509
198 1 20.8889 -1.11135 -1.1519
199 1 21.4366 -0.402566 -1.46529
200 1 21.8074 -0.878944 -0.70968
201 1 21.9829 -1.66433 -1.22215
202 1 22.7817 -1.54324 -0.767812
203 1 23.6012 -1.4145 -0.470587
204 1 24.0591 -1.51404 -1.3348
205 1 24.7129 -1.1719 -0.709822
206 1 24.7031 -0.630965 0.0698243
207 1 24.2584 -0.566784 0.85954
208 1 23.4762 -0.0631667 0.776729
209 1 23.6845 -0.068086 -0.140702
210 1 23.7537 0.825886 0.112572
211 1 23.6701 0.768002 -0.825007
212 1 24.4812 1.04201 -1.26239
213 1 24.9825 0.672612 -2.00617
214 1 25.3478 1.18162 -2.65717
215 1 26.0771 1.31906 -3.2751
216 1 25.4965 1.6144 -4.00962
217 1 26.2159 2.31241 -4.03034
218 1 26.9674 2.88783 -3.80727
219 1 27.7062 3.49098 -3.95544
220 1 27.2717 3.59813 -4.83297
221 1 27.1997 3.15581 -5.68695
222 1 26.2661 2.9563 -5.82634
223 1 25.8448 2.42419 -5.16391
224 1 26.0556 1.59193 -5.39597
225 1 26.0664 0.742814 -5.85221
226 1 26.9446 0.820329 -6.00687
227 1 27.8443 0.83941 -5.56601
228 1 28.6315 1.3234 -5.35343
229 1 29.1319 0.543558 -5.31182
230 1 28.8895 -0.0441502 -4.61701
231 1 28.2727 -0.444136 -4.07068
232 1 27.9568 -0.757573 -3.29549
233 1 27.8786 -0.605934 -2.39525
234 1 27.3386 0.164524 -2.24094
235 1 27.3659 0.748004 -2.94135
236 1 28.2172 0.297179 -3.04189
237 1 28.323 1.05053 -2.47589
238 1 29.2053 0.845859 -2.32086
239 1 29.8241 1.54663 -2.39096
240 1 30.4769 1.43555 -3.0911
241 1 31.0864 2.12311 -3.34242
242 1 31.7226 2.59547 -3.84896
243 1 32.1817 3.36189 -3.93539
244 1 32.306 4.14836 -3.36781
245 1 32.664 4.94693 -3.09417
246 1 32.9643 5.30185 -2.2573
247 1 32.7991 6.28499 -2.04138
248 1 32.0957 6.15469 -2.71044
249 1 32.0328 7.11396 -2.7476
250 1 31.1529 6.94037 -3.02635
251 1 30.8639 7.85429 -2.96428
252 1 30.0679 7.7902 -2.51075
253 1 29.8935 8.67665 -2.16688
254 1 29.2147 8.78067 -1.51612
255 1 28.5012 9.20262 -1.09328
256 1 27.9357 9.87438 -1.41048
ITEM: TIMESTEP
320000
ITEM: NUMBER OF ATOMS
256
ITEM: BOX BOUNDS mm mm mm
-1.2800000000000000e+02 1.2800000000000000e+02
-1.2800000000000000e+02 1.2800000000000000e+02
-1.2800000000000000e+02 1.2800000000000000e+02
ITEM: ATOMS id type x y z
1 1 -42.2927 13.1948 -2.33187
2 1 -42.7803 13.0588 -1.49425
3 1 -42.9278 13.6984 -0.861581
4 1 -43.8756 13.8637 -1.05498
5 1 -44.5284 13.5801 -0.469768
6 1 -45.0031 13.4157 -1.24491
7 1 -45.1075 13.804 -2.10082
8 1 -45.3411 13.8988 -3.00754
9 1 -44.4153 13.8574 -3.18829
10 1 -43.574 13.6748 -2.82402
11 1 -43.2756 14.5281 -2.9433
12 1 -43.4616 15.3461 -2.41919
13 1 -42.6172 15.5174 -2.1675
14 1 -41.7603 15.0896 -2.11294
15 1 -41.5432 15.5858 -2.92257
16 1 -40.8597 16.1956 -3.09126
17 1 -40.2472 15.6544 -3.58996
18 1 -39.7542 16.4128 -3.71666
19 1 -39.6009 17.138 -3.21117
20 1 -38.7252 17.182 -3.38231
21 1 -37.9777 17.4616 -3.91207
22 1 -37.4797 17.7027 -3.11184
23 1 -37.2098 16.8876 -2.91722
24 1 -37.4271 16.2009 -2.25291
25 1 -37.0426 15.3279 -2.34171
26 1 -36.3223 15.3919 -2.91454
27 1 -36.0554 15.0695 -2.07417
28 1 -35.3934 14.934 -1.38671
29 1 -34.9568 15.7264 -1.12724
30 1 -34.0758 15.9759 -1.34286
31 1 -33.8374 15.0911 -1.68696
32 1 -33.885 14.2159 -1.4453
33 1 -33.6836 13.9268 -0.565011
34 1 -33.0477 13.2394 -0.69941
35 1 -33.5909 13.0624 0.0975149
36 1 -33.5607 12.9002 1.1173
37 1 -32.6615 12.5023 1.31693
38 1 -32.5343 12.404 2.20675
39 1 -31.9633 11.6794 2.60843
40 1 -32.4222 10.876 2.75589
41 1 -31.7551 10.3748 3.22245
42 1 -30.9467 10.4237 3.70137
43 1 -30.228 10.6605 3.0804
44 1 -30.0534 10.9337 3.98026
45 1 -29.2395 10.8812 3.4823
46 1 -28.4411 10.5325 3.31525
47 1 -28.3801 9.64361 3.50562
48 1 -28.315 8.65526 3.62326
49 1 -28.8591 7.84707 3.77547
50 1 -29.1432 7.49066 2.94941
51 1 -29.1006 6.54273 3.00672
52 1 -30.0222 6.70115 3.28811
53 1 -30.0642 6.21009 4.0952
54 1 -29.6983 5.33043 4.09966
55 1 -30.3934 4.75832 4.31808
56 1 -30.0311 4.04313 4.8277
57 1 -30.0853 3.11391 4.64296
58 1 -29.7225 2.41765 5.1966
59 1 -29.8896 2.70582 6.06463
60 1 -29.6507 3.4685 6.62865
61 1 -29.11 4.23019 6.88038
62 1 -28.321 4.66961 6.54495
63 1 -28.7027 5.56674 6.47878
64 1 -29.4759 6.06751 6.80444
65 1 -30.2023 5.94794 7.39688
66 1 -29.5133 6.26042 7.98547
67 1 -28.8784 6.78112 7.68174
68 1 -29.3127 7.36818 7.13241
69 1 -28.6995 7.42272 6.40031
70 1 -27.785 7.41136 6.07597
71 1 -26.8608 7.52676 6.29871
72 1 -26.2897 6.82134 6.47705
73 1 -25.5681 6.47006 6.9736
74 1 -25.7085 7.10759 7.74455
75 1 -25.5628 6.46075 8.40511
76 1 -24.9159 6.03691 8.90686
77 1 -24.4064 5.50425 9.48928
78 1 -23.8805 6.26705 9.56946
79 1 -23.0693 6.45636 9.99709
80 1 -22.3477 6.05768 9.53504
81 1 -22.0595 6.13687 8.57076
82 1 -22.1928 5.40478 8.01245
83 1 -21.6227 4.82437 8.49812
84 1 -21.0006 4.1688 8.5927
85 1 -20.9798 3.85737 7.72955
86 1 -20.8015 4.02286 6.83651
87 1 -21.0394 3.12957 6.92051
88 1 -21.3538 2.85946 7.77822
89 1 -21.4221 2.03371 7.28884
90 1 -21.5506 1.17783 7.65129
91 1 -21.5756 0.255794 7.67707
92 1 -20.9574 -0.435153 7.84719
93 1 -20.6017 -0.679257 7.01021
94 1 -19.8425 -0.801112 6.51778
95 1 -19.1992 -1.41187 6.12562
96 1 -19.7656 -1.20494 5.39408
97 1 -19.7569 -0.270198 5.41997
98 1 -19.2015 -0.167424 4.6626
99 1 -18.3758 -0.288046 4.226
100 1 -17.5572 -0.0382466 3.95222
101 1 -16.7904 -0.085892 4.58514
102 1 -16.1258 -0.0602041 3.94906
103 1 -15.5012 0.592642 3.96244
104 1 -15.1096 1.37384 3.60089
105 1 -14.8582 2.26436 3.72602
106 1 -14.7034 2.96238 3.11079
107 1 -13.7709 3.1014 3.42968
108 1 -13.762 2.33316 2.8935
109 1 -13.2576 3.09607 2.30678
110 1 -14.0754 3.31289 1.88265
111 1 -14.0295 3.98595 2.52663
112 1 -13.602 4.71109 2.21244
113 1 -14.3341 4.6804 1.61894
114 1 -13.7378 4.30969 0.957462
115 1 -13.4037 4.51137 0.10712
116 1 -12.944 3.70261 0.202157
117 1 -12.8749 2.78093 0.126002
118 1 -11.9786 2.54474 0.390971
119 1 -12.481 1.96121 0.912698
120 1 -11.8679 1.36427 1.28149
121 1 -11.4444 0.734538 0.720324
122 1 -11.8857 -0.0159803 0.471702
123 1 -12.5339 -0.691781 0.397099
124 1 -12.1173 -1.48213 0.121526
125 1 -11.1776 -1.50376 0.301917
126 1 -10.3988 -1.3564 0.757047
127 1 -9.98053 -0.550762 0.909034
128 1 -10.2301 -0.848236 1.77226
129 1 -9.57266 -1.54946 1.64511
130 1 -9.84765 -2.39437 1.30268
131 1 -9.27088 -2.88801 1.817
132 1 -9.21167 -3.78468 1.81382
133 1 -8.56148 -4.31738 1.4229
134 1 -7.88635 -3.81988 0.957263
135 1 -7.26486 -3.28593 0.416832
136 1 -6.3509 -3.50238 0.660465
137 1 -5.63238 -3.51162 -0.0285498
138 1 -4.82888 -3.94511 -0.301074
139 1 -4.6529 -4.03056 -1.21786
140 1 -3.82098 -3.51259 -1.4677
141 1 -3.04791 -3.83438 -1.05523
142 1 -3.41016 -4.66764 -1.44965
143 1 -2.60598 -5.17808 -1.75509
144 1 -1.75722 -5.2175 -2.13572
145 1 -1.05062 -4.63208 -2.32478
146 1 -0.791909 -3.96485 -2.97297
147 1 -0.198571 -4.01322 -2.25291
148 1 0.583339 -3.45823 -1.94228
149 1 0.745629 -2.71469 -1.38965
150 1 0.0274681 -2.34503 -0.909989
151 1 0.631987 -1.95784 -0.261449
152 1 1.44582 -1.60669 -0.199945
153 1 1.97426 -2.24836 -0.68461
154 1 2.56519 -1.65325 -1.162
155 1 2.41785 -1.67132 -2.12945
156 1 2.80672 -2.18538 -2.79764
157 1 3.31428 -2.68825 -3.43334
158 1 4.14075 -2.23804 -3.46366
159 1 4.06811 -1.59376 -4.08269
160 1 4.9657 -1.2212 -4.03117
161 1 5.91583 -1.05351 -3.98141
162 1 6.60762 -0.517823 -3.64941
163 1 7.5476 -0.383082 -3.56801
164 1 7.46024 -0.882805 -4.35636
165 1 8.01299 -1.51786 -3.90619
166 1 8.93681 -1.48783 -4.19012