print ">>>>>>>>>>>>>>>>>>>>>>>>>>>>>>>>>>>>>>>>>>>>>>>>>>>>>>>>>>>>>>>>>>>>>>>>>>>>>>>N: 256 K: 0.5"
>>>>>>>>>>>>>>>>>>>>>>>>>>>>>>>>>>>>>>>>>>>>>>>>>>>>>>>>>>>>>>>>>>>>>>>>>>>>>>>N: 256 K: 0.5
read_restart restart._N256_k0.5.dat
Reading restart file ...
  restart file = 23 Jun 2022, LAMMPS = 23 Jun 2022
  restoring atom style angle from restart
  orthogonal box = (-128 -128 -128) to (128 128 128)
  1 by 2 by 2 MPI processor grid
  restoring pair style lj/cut from restart
  restoring bond style fene from restart
  restoring angle style cosine from restart
  256 atoms
  255 bonds
  254 angles
Finding 1-2 1-3 1-4 neighbors ...
  special bond factors lj:    0        1        1       
  special bond factors coul:  0        1        1       
     2 = max # of 1-2 neighbors
     6 = max # of special neighbors
  special bonds CPU = 0.000 seconds
  read_restart CPU = 0.002 seconds
# sets up computes needed for continuing a run from a restart file

# dumps and fixes, dumps are already handled in the python file



###

# Set up fixes - as these are not stored in the restart files

###

variable seed equal 315987     # a seed for the thermostat

fix 1 all nve                             # NVE integrator

fix 2 all langevin   1.0 1.0 1.0 ${seed}  # langevin thermostat

fix 2 all langevin   1.0 1.0 1.0 315987  


##### Calculate thermodynamics to write ###################################

variable t equal step

variable mytemp equal temp

variable myepair equal epair

############################################################################



############################################################################

#### Set up a compute for R_g

compute myRG2compute all gyration

#### and write it to a file

variable RG2 equal c_myRG2compute

############################################################################



##### Output thermodynamic info  (temperature, energy, pressure, etc.) #####

thermo 10000

thermo_style   custom   step  temp  epair  emol pe ke etotal  press  vol

############################################################################



###

# modify neighborlist behaviour since this too is not recorded

###

neighbor 1.9 bin

neigh_modify every 1 delay 1 check yes

fix mythermofile all print 10000 "$t ${mytemp} ${myepair}" file thermo_output_N256_k0.5.dat screen no
fix myRG2file all print 10000 "$t ${RG2}" file radius_of_gyration_squared_N256_k0.5.dat screen no
dump dum2 all custom 10000 dump_N256_k0.5.dynamics id type x y z
dump_modify dum2  sort id
run 500000
Generated 0 of 0 mixed pair_coeff terms from geometric mixing rule
Neighbor list info ...
  update every 1 steps, delay 1 steps, check yes
  max neighbors/atom: 2000, page size: 100000
  master list distance cutoff = 3.0224615
  ghost atom cutoff = 3.55
  binsize = 1.5112308, bins = 170 170 170
  1 neighbor lists, perpetual/occasional/extra = 1 0 0
  (1) pair lj/cut, perpetual
      attributes: half, newton on
      pair build: half/bin/newton
      stencil: half/bin/3d
      bin: standard
Per MPI rank memory allocation (min/avg/max) = 12.05 | 12.21 | 12.44 Mbytes
   Step          Temp          E_pair         E_mol          PotEng         KinEng         TotEng         Press          Volume    
   1540000   1.0294949      0.021299801    31.528877      31.550177      1.5382101      33.088387     -8.1046178e-06  16777216     
   1550000   1.1055638      0.012180577    31.654001      31.666181      1.6518678      33.318049      2.1302937e-06  16777216     
   1560000   1.037595       0.010701739    31.343559      31.354261      1.5503128      32.904574      9.3522895e-06  16777216     
   1570000   1.008786       0.01973276     31.390645      31.410377      1.5072682      32.917646     -4.8468473e-06  16777216     
   1580000   1.0016914      0.014007391    31.542138      31.556146      1.4966678      33.052814     -3.309496e-06   16777216     
   1590000   1.0221271      0.0062024067   31.407832      31.414035      1.5272016      32.941236      1.4277009e-05  16777216     
   1600000   1.0182533      0.016745985    31.520312      31.537058      1.5214136      33.058471      1.679051e-05   16777216     
   1610000   1.0379253      0.014829022    31.371678      31.386507      1.5508063      32.937313      1.6945502e-05  16777216     
   1620000   1.0043173      0.031123775    31.404253      31.435377      1.5005913      32.935968      1.0179127e-05  16777216     
   1630000   0.98307834     0.027945621    31.335007      31.362953      1.4688573      32.83181       7.057698e-06   16777216     
   1640000   1.0514841      0.0044624428   31.371839      31.376302      1.5710651      32.947367     -5.3595588e-06  16777216     
   1650000   1.0536039      0.0036268028   31.503488      31.507114      1.5742324      33.081347     -1.0826918e-05  16777216     
   1660000   0.97386065     0.01068581     31.390566      31.401252      1.4550848      32.856337      3.5740766e-06  16777216     
   1670000   0.95285192     0.012457188    31.435648      31.448106      1.4236948      32.8718        1.8587266e-05  16777216     
   1680000   0.9491501      0.015481783    31.367671      31.383152      1.4181637      32.801316      7.2272069e-06  16777216     
   1690000   1.0384127      0.019340907    31.393668      31.413009      1.5515346      32.964543      6.2207775e-06  16777216     
   1700000   1.0989718      0.017306779    31.445656      31.462963      1.6420184      33.104981     -1.5200504e-06  16777216     
   1710000   1.0240608      0.022977951    31.369469      31.392447      1.5300908      32.922538      1.2711592e-06  16777216     
   1720000   1.0276329      0.017892309    31.396928      31.414821      1.5354281      32.950249      1.1447153e-05  16777216     
   1730000   0.91309695     0.013997738    31.468043      31.482041      1.3642953      32.846336     -1.1046085e-05  16777216     
   1740000   0.96524065     0.0084231538   31.44794       31.456363      1.4422053      32.898569     -5.1501867e-07  16777216     
   1750000   0.97606005     0.022130743    31.425775      31.447906      1.458371       32.906277     -1.5719883e-05  16777216     
   1760000   1.0790872      0.0050822518   31.362193      31.367276      1.6123081      32.979584      1.1695664e-05  16777216     
   1770000   1.1073917      0.0094881543   31.370115      31.379603      1.654599       33.034202     -1.4631923e-05  16777216     
   1780000   1.01517        0.012654984    31.398797      31.411452      1.5168067      32.928259     -7.3382061e-06  16777216     
   1790000   0.9808753      0.013772099    31.428566      31.442338      1.4655656      32.907904     -1.218167e-05   16777216     
   1800000   0.97171079     0.018074182    31.406646      31.42472       1.4518726      32.876592     -1.9762237e-05  16777216     
   1810000   0.99726303     0.0069294221   31.433471      31.440401      1.4900512      32.930452      7.1632553e-06  16777216     
   1820000   1.0040257      0.0089018184   31.342793      31.351695      1.5001556      32.851851     -3.3812095e-06  16777216     
   1830000   1.0655351      0.025144652    31.518176      31.543321      1.5920593      33.13538       5.033935e-06   16777216     
   1840000   0.97357845     0.032230793    31.469037      31.501268      1.4546631      32.955931     -5.4950153e-06  16777216     
   1850000   1.1077729      0.018179681    31.466041      31.484221      1.6551684      33.139389     -1.2561483e-06  16777216     
   1860000   1.0040005      0.017164383    31.388338      31.405502      1.500118       32.90562       5.8588832e-06  16777216     
   1870000   1.0192862      0.031960081    31.475568      31.507528      1.522957       33.030485      4.9457547e-06  16777216     
   1880000   1.0525932      0.020188005    31.407032      31.42722       1.5727222      32.999942     -1.5342866e-05  16777216     
   1890000   1.0888786      0.024584132    31.503027      31.527611      1.6269377      33.154548     -3.4068348e-07  16777216     
   1900000   0.96711618     0.007988274    31.396546      31.404534      1.4450076      32.849541      1.6500722e-06  16777216     
   1910000   1.0028571      0.0090009806   31.31482       31.323821      1.4984096      32.822231      2.4897484e-06  16777216     
   1920000   1.0072978      0.02198517     31.422536      31.444522      1.5050446      32.949566      6.7440456e-06  16777216     
   1930000   0.9608028      0.02405628     31.332156      31.356212      1.4355745      32.791787     -2.1497053e-05  16777216     
   1940000   1.1570492      0.015027248    31.400722      31.415749      1.7287942      33.144543      8.6724123e-06  16777216     
   1950000   0.96800971     0.027520951    31.481426      31.508947      1.4463426      32.95529       6.0199497e-06  16777216     
   1960000   0.94889205     0.016608826    31.445679      31.462288      1.4177782      32.880066     -1.2008535e-05  16777216     
   1970000   0.9153798      0.012259486    31.483193      31.495452      1.3677061      32.863158      1.0777221e-05  16777216     
   1980000   1.020069       0.0071698741   31.469181      31.476351      1.5241266      33.000478      7.8328438e-06  16777216     
   1990000   1.0266141      0.026243794    31.405287      31.431531      1.5339059      32.965437      1.7050558e-05  16777216     
   2000000   1.0041905      0.0048600773   31.487763      31.492623      1.5004018      32.993025     -1.8594371e-05  16777216     
   2010000   1.1062289      0.0055740423   31.43894       31.444514      1.6528616      33.097376      3.2334952e-05  16777216     
   2020000   1.0262151      0.0016917725   31.435785      31.437477      1.5333097      32.970786      7.2464095e-06  16777216     
   2030000   1.1065529      0.033146749    31.458624      31.491771      1.6533457      33.145116     -1.6176371e-06  16777216     
   2040000   1.0650493      0.014804097    31.509141      31.523945      1.5913335      33.115279     -1.5094317e-06  16777216     
Loop time of 48.3665 on 4 procs for 500000 steps with 256 atoms

Performance: 8931806.331 tau/day, 10337.739 timesteps/s
100.0% CPU use with 4 MPI tasks x 1 OpenMP threads

MPI task timing breakdown:
Section |  min time  |  avg time  |  max time  |%varavg| %total
---------------------------------------------------------------
Pair    | 0.067136   | 0.75777    | 1.7103     |  80.7 |  1.57
Bond    | 0.12617    | 1.8503     | 4.2931     | 129.7 |  3.83
Neigh   | 29.614     | 29.642     | 29.667     |   0.4 | 61.29
Comm    | 5.5688     | 6.4999     | 7.5127     |  27.2 | 13.44
Output  | 0.016155   | 0.020446   | 0.021933   |   1.7 |  0.04
Modify  | 0.22536    | 2.1477     | 4.8823     | 134.6 |  4.44
Other   |            | 7.448      |            |       | 15.40

Nlocal:             64 ave         225 max           0 min
Histogram: 2 1 0 0 0 0 0 0 0 1
Nghost:             23 ave          35 max           5 min
Histogram: 1 0 0 0 0 0 1 1 0 1
Neighs:         301.75 ave        1087 max           0 min
Histogram: 3 0 0 0 0 0 0 0 0 1

Total # of neighbors = 1207
Ave neighs/atom = 4.7148438
Ave special neighs/atom = 1.9921875
Neighbor list builds = 14889
Dangerous builds = 0
write_restart 	restart._N256_k0.5.dat
System init for write_restart ...
Generated 0 of 0 mixed pair_coeff terms from geometric mixing rule
Total wall time: 0:00:48
