print ">>>>>>>>>>>>>>>>>>>>>>>>>>>>>>>>>>>>>>>>>>>>>>>>>>>>>>>>>>>>>>>>>>>>>>>>>>>>>>>N: 256 K: 0.5"
>>>>>>>>>>>>>>>>>>>>>>>>>>>>>>>>>>>>>>>>>>>>>>>>>>>>>>>>>>>>>>>>>>>>>>>>>>>>>>>N: 256 K: 0.5
read_restart restart._N256_k0.5.dat
Reading restart file ...
  restart file = 23 Jun 2022, LAMMPS = 23 Jun 2022
  restoring atom style angle from restart
  orthogonal box = (-128 -128 -128) to (128 128 128)
  1 by 2 by 2 MPI processor grid
  restoring pair style lj/cut from restart
  restoring bond style fene from restart
  restoring angle style cosine from restart
  256 atoms
  255 bonds
  254 angles
Finding 1-2 1-3 1-4 neighbors ...
  special bond factors lj:    0        1        1       
  special bond factors coul:  0        1        1       
     2 = max # of 1-2 neighbors
     6 = max # of special neighbors
  special bonds CPU = 0.000 seconds
  read_restart CPU = 0.001 seconds
# sets up computes needed for continuing a run from a restart file

# dumps and fixes, dumps are already handled in the python file



###

# Set up fixes - as these are not stored in the restart files

###

variable seed equal 315987     # a seed for the thermostat

fix 1 all nve                             # NVE integrator

fix 2 all langevin   1.0 1.0 1.0 ${seed}  # langevin thermostat

fix 2 all langevin   1.0 1.0 1.0 315987  


##### Calculate thermodynamics to write ###################################

variable t equal step

variable mytemp equal temp

variable myepair equal epair

############################################################################



############################################################################

#### Set up a compute for R_g

compute myRG2compute all gyration

#### and write it to a file

variable RG2 equal c_myRG2compute

############################################################################



##### Output thermodynamic info  (temperature, energy, pressure, etc.) #####

thermo 10000

thermo_style   custom   step  temp  epair  emol pe ke etotal  press  vol

############################################################################



###

# modify neighborlist behaviour since this too is not recorded

###

neighbor 1.9 bin

neigh_modify every 1 delay 1 check yes

fix mythermofile all print 10000 "$t ${mytemp} ${myepair}" file thermo_output_N256_k0.5.dat screen no
fix myRG2file all print 10000 "$t ${RG2}" file radius_of_gyration_squared_N256_k0.5.dat screen no
dump dum2 all custom 10000 dump_N256_k0.5.dynamics id type x y z
dump_modify dum2  sort id
run 1500000
Generated 0 of 0 mixed pair_coeff terms from geometric mixing rule
Neighbor list info ...
  update every 1 steps, delay 1 steps, check yes
  max neighbors/atom: 2000, page size: 100000
  master list distance cutoff = 3.0224615
  ghost atom cutoff = 3.55
  binsize = 1.5112308, bins = 170 170 170
  1 neighbor lists, perpetual/occasional/extra = 1 0 0
  (1) pair lj/cut, perpetual
      attributes: half, newton on
      pair build: half/bin/newton
      stencil: half/bin/3d
      bin: standard
Per MPI rank memory allocation (min/avg/max) = 12.05 | 12.21 | 12.45 Mbytes
   Step          Temp          E_pair         E_mol          PotEng         KinEng         TotEng         Press          Volume    
   2040000   1.0650493      0.014804097    31.509141      31.523945      1.5913335      33.115279     -1.5094317e-06  16777216     
   2050000   0.9627925      0.010936239    31.397463      31.408399      1.4385474      32.846947     -5.8024819e-06  16777216     
   2060000   0.98653236     0.014917049    31.450865      31.465782      1.4740181      32.9398        1.0374123e-05  16777216     
   2070000   1.0678452      0.0099545714   31.39422       31.404175      1.5955108      32.999686     -1.048101e-05   16777216     
   2080000   0.92565848     0.024972439    31.440127      31.4651        1.3830639      32.848164      1.5827885e-06  16777216     
   2090000   1.0531386      0.013774308    31.422624      31.436399      1.5735371      33.009936      1.0988336e-05  16777216     
   2100000   0.99764318     0.039242745    31.419614      31.458857      1.4906192      32.949476      2.6215524e-05  16777216     
   2110000   1.0444548      0.0083861817   31.371903      31.380289      1.5605624      32.940851      1.7293739e-05  16777216     
   2120000   1.0749114      0.015593865    31.408631      31.424225      1.6060688      33.030294      1.7155263e-05  16777216     
   2130000   0.89570745     0.027776978    31.501477      31.529254      1.3383129      32.867567     -1.2468818e-05  16777216     
   2140000   1.0131844      0.0096736619   31.480914      31.490588      1.51384        33.004428     -2.0941888e-05  16777216     
   2150000   0.98074289     0.036276805    31.414351      31.450628      1.4653678      32.915995      7.8880555e-06  16777216     
   2160000   0.94430828     0.0086524254   31.488104      31.496757      1.4109294      32.907686     -1.4872895e-05  16777216     
   2170000   1.1014636      0.028101906    31.423086      31.451188      1.6457415      33.09693       1.5993375e-05  16777216     
   2180000   0.98118177     0.027120935    31.471733      31.498854      1.4660235      32.964878     -4.9149697e-06  16777216     
   2190000   1.0523172      0.013404537    31.316969      31.330373      1.5723098      32.902683     -3.888794e-06   16777216     
   2200000   0.98767994     0.018919852    31.428051      31.44697       1.4757327      32.922703      1.8396814e-05  16777216     
   2210000   0.99194911     0.0028938078   31.349046      31.351939      1.4821115      32.834051     -9.9063226e-06  16777216     
   2220000   0.98927528     0.040568597    31.333961      31.374529      1.4781164      32.852646      8.90958e-06    16777216     
   2230000   0.98872927     0.0077238934   31.410204      31.417928      1.4773006      32.895229     -3.0885846e-06  16777216     
   2240000   0.97350519     0.024419306    31.451729      31.476148      1.4545537      32.930702     -6.6535458e-06  16777216     
   2250000   0.99045577     0.034214627    31.443231      31.477445      1.4798802      32.957325     -2.4155666e-06  16777216     
   2260000   0.96559229     0.022638735    31.432976      31.455615      1.4427307      32.898346      2.6277423e-06  16777216     
   2270000   0.97327887     0.035517106    31.471961      31.507478      1.4542155      32.961694      5.9092348e-07  16777216     
   2280000   0.9674264      0.0078783136   31.441331      31.449209      1.4454711      32.89468      -4.8675087e-06  16777216     
   2290000   0.95584886     0.031264497    31.516476      31.54774       1.4281726      32.975913      2.3007011e-06  16777216     
   2300000   1.0210549      0.016734155    31.388993      31.405728      1.5255997      32.931327     -9.001043e-06   16777216     
   2310000   0.98317642     0.0066400132   31.427962      31.434602      1.4690038      32.903606     -3.2076883e-06  16777216     
   2320000   1.0293763      0.012070288    31.418591      31.430661      1.538033       32.968694     -5.1422598e-06  16777216     
   2330000   0.98723328     0.014772724    31.467333      31.482106      1.4750653      32.957171     -4.3275768e-06  16777216     
   2340000   1.0595623      0.0083112637   31.478734      31.487045      1.5831351      33.07018      -3.5171339e-06  16777216     
   2350000   0.94595223     0.011338126    31.395448      31.406786      1.4133857      32.820171      6.144071e-06   16777216     
   2360000   1.0704631      0.010568709    31.400279      31.410848      1.5994224      33.01027       3.3267152e-06  16777216     
   2370000   1.0079952      0.023375791    31.361942      31.385318      1.5060866      32.891405      5.768987e-06   16777216     
   2380000   0.99803684     0.021671182    31.490095      31.511767      1.4912074      33.002974      4.265721e-07   16777216     
   2390000   1.001069       0.024462233    31.451312      31.475774      1.4957378      32.971512     -9.5359369e-06  16777216     
   2400000   0.95109463     0.019022463    31.439345      31.458367      1.4210691      32.879436     -6.2319839e-06  16777216     
   2410000   1.0259799      0.0047134395   31.527594      31.532308      1.5329583      33.065266      5.9319677e-06  16777216     
   2420000   1.0302805      0.027671717    31.556833      31.584504      1.539384       33.123888     -2.578135e-05   16777216     
   2430000   0.99851199     0.01914849     31.310388      31.329536      1.4919173      32.821453      1.1946482e-05  16777216     
   2440000   1.0136649      0.034105477    31.395065      31.429171      1.5145579      32.943728     -7.8857085e-06  16777216     
   2450000   1.0741481      0.0060148181   31.407594      31.413608      1.6049284      33.018537      7.0654908e-06  16777216     
   2460000   0.94272823     0.027109007    31.280869      31.307978      1.4085685      32.716547     -3.5966846e-06  16777216     
   2470000   0.95825158     0.0079563628   31.44722       31.455177      1.4317626      32.886939      5.4692244e-06  16777216     
   2480000   0.95610951     0.034040987    31.455237      31.489278      1.4285621      32.91784       9.6767097e-08  16777216     
   2490000   1.0641854      0.04539659     31.521809      31.567206      1.5900426      33.157248      4.7946951e-06  16777216     
   2500000   0.99763997     0.021539282    31.341091      31.362631      1.4906144      32.853245     -4.7402766e-06  16777216     
   2510000   1.073724       0.0029184516   31.508174      31.511093      1.6042946      33.115388     -5.9632372e-06  16777216     
   2520000   1.0819881      0.01019126     31.443103      31.453294      1.6166424      33.069936     -1.9513206e-05  16777216     
   2530000   0.86247302     0.014953137    31.325026      31.33998       1.288656       32.628636     -9.4046845e-06  16777216     
   2540000   1.0182351      0.01612844     31.470395      31.486524      1.5213865      33.00791      -1.6282806e-05  16777216     
   2550000   0.93636279     0.018991168    31.420329      31.43932       1.3990577      32.838378      1.2583362e-06  16777216     
   2560000   0.94272993     0.011056175    31.319009      31.330065      1.4085711      32.738636     -4.6429328e-06  16777216     
   2570000   1.0080198      0.0011530801   31.435565      31.436718      1.5061233      32.942842     -4.6994359e-06  16777216     
   2580000   1.0224684      0.028010622    31.435609      31.46362       1.5277116      32.991331      5.8394142e-06  16777216     
   2590000   0.92384577     0.022301878    31.380349      31.402651      1.3803555      32.783006     -2.6861737e-05  16777216     
   2600000   1.017838       0.015223775    31.310616      31.325839      1.5207931      32.846632      1.0464164e-05  16777216     
   2610000   0.91216959     0.012198646    31.416956      31.429155      1.3629096      32.792065     -1.2226751e-05  16777216     
   2620000   1.0115183      0.014477974    31.413958      31.428436      1.5113505      32.939787      7.0129968e-07  16777216     
   2630000   0.98965708     0.024358705    31.3967        31.421059      1.4786868      32.899746     -4.0976612e-06  16777216     
   2640000   1.0418343      0.015185815    31.411914      31.4271        1.556647       32.983747      1.2630136e-05  16777216     
   2650000   0.93467546     0.011045621    31.473134      31.484179      1.3965366      32.880716     -6.4619815e-06  16777216     
   2660000   0.9582646      0.017638409    31.459875      31.477513      1.4317821      32.909295      4.2294476e-06  16777216     
   2670000   0.98843611     0.019686089    31.460165      31.479851      1.4768625      32.956713     -8.1248862e-06  16777216     
   2680000   1.0884279      0.012282568    31.422745      31.435027      1.6262644      33.061291      9.2159496e-06  16777216     
   2690000   1.0000714      0.0083291132   31.417134      31.425463      1.4942473      32.91971      -3.1065013e-06  16777216     
   2700000   1.0430004      0.01368483     31.488922      31.502607      1.5583893      33.060996     -1.7199058e-05  16777216     
   2710000   1.0984009      0.029751666    31.372077      31.401828      1.6411655      33.042994     -3.559205e-07   16777216     
   2720000   0.98151025     0.0081093749   31.331097      31.339206      1.4665143      32.805721      8.9169854e-06  16777216     
   2730000   1.007883       0.015347579    31.361731      31.377078      1.505919       32.882997     -3.7044705e-06  16777216     
   2740000   0.99474399     0.053009348    31.448042      31.501051      1.4862874      32.987339      5.1022295e-06  16777216     
   2750000   1.0388813      0.025353023    31.524203      31.549556      1.5522347      33.101791     -8.6955027e-06  16777216     
   2760000   1.0061729      0.017736621    31.405189      31.422925      1.5033638      32.926289     -1.0883705e-05  16777216     
   2770000   0.9447883      0.020585434    31.39371       31.414296      1.4116466      32.825942      8.9353989e-06  16777216     
   2780000   1.0166756      0.018916771    31.329898      31.348815      1.5190563      32.867871      5.868276e-06   16777216     
   2790000   0.91901273     0.015230975    31.436617      31.451848      1.3731343      32.824982      1.9355758e-05  16777216     
   2800000   0.9451265      0.027553639    31.468702      31.496255      1.4121519      32.908407      9.3337231e-07  16777216     
   2810000   1.0558984      0.015279623    31.433948      31.449228      1.5776607      33.026888      4.427499e-06   16777216     
   2820000   0.97290022     0.020378081    31.489185      31.509563      1.4536498      32.963213      8.05655e-06    16777216     
   2830000   1.017496       0.011576896    31.428855      31.440432      1.5202821      32.960714     -9.4317219e-06  16777216     
   2840000   0.99917173     0.018175156    31.495485      31.51366       1.4929031      33.006563      6.6092983e-06  16777216     
   2850000   0.94397024     0.014861877    31.483705      31.498567      1.4104243      32.908991     -5.1969568e-07  16777216     
   2860000   0.99877112     0.013650484    31.398182      31.411833      1.4923045      32.904137      1.3344171e-05  16777216     
   2870000   1.0323808      0.021385241    31.385316      31.406701      1.5425221      32.949223      6.8985098e-06  16777216     
   2880000   0.99738028     0.017820229    31.342091      31.359911      1.4902264      32.850138      1.0211531e-05  16777216     
   2890000   1.0209691      0.031550152    31.346999      31.378549      1.5254714      32.904021      1.075668e-05   16777216     
   2900000   0.98245542     0.019842837    31.393559      31.413402      1.4679266      32.881328      1.0023123e-06  16777216     
   2910000   1.043267       0.0082779576   31.469929      31.478207      1.5587877      33.036995     -1.7471566e-05  16777216     
   2920000   0.96738197     0.011239186    31.444264      31.455503      1.4454047      32.900908      2.0835761e-06  16777216     
   2930000   1.0631837      0.026399985    31.411323      31.437723      1.588546       33.026269      1.8280847e-06  16777216     
   2940000   0.96008569     0.02398589     31.344286      31.368272      1.434503       32.802775     -1.3089034e-06  16777216     
   2950000   1.0141752      0.0089523235   31.436502      31.445455      1.5153203      32.960775     -4.1440543e-06  16777216     
   2960000   0.98183222     0.010529488    31.482779      31.493308      1.4669954      32.960304      1.5047252e-06  16777216     
   2970000   0.95624064     0.022458953    31.454948      31.477407      1.428758       32.906165      2.873668e-06   16777216     
   2980000   1.1138184      0.026778688    31.416434      31.443213      1.6642013      33.107414     -9.0835733e-06  16777216     
   2990000   1.1161194      0.021098764    31.374853      31.395952      1.6676393      33.063591      1.3587689e-06  16777216     
   3000000   0.94829775     0.03283024     31.371354      31.404184      1.4168902      32.821074      1.7448818e-05  16777216     
   3010000   0.95900735     0.01462818     31.513973      31.528601      1.4328918      32.961493      4.7650685e-06  16777216     
   3020000   1.0015724      0.04156075     31.366328      31.407889      1.4964901      32.904379      1.1890918e-05  16777216     
   3030000   1.0054465      0.027458557    31.432407      31.459866      1.5022784      32.962144      2.3832552e-05  16777216     
   3040000   1.0491786      0.014183612    31.425151      31.439335      1.5676204      33.006955     -5.6799436e-06  16777216     
   3050000   0.97428721     0.0065677279   31.457538      31.464105      1.4557221      32.919827     -4.1299906e-06  16777216     
   3060000   0.95159094     0.010895919    31.524461      31.535357      1.4218107      32.957168      1.0541105e-05  16777216     
   3070000   1.0313515      0.004111785    31.385838      31.38995       1.5409842      32.930934      1.8519224e-06  16777216     
   3080000   0.99953673     0.022673165    31.408169      31.430843      1.4934484      32.924291     -3.118247e-06   16777216     
   3090000   1.1298941      0.010264577    31.43179       31.442055      1.6882207      33.130275     -1.1459619e-05  16777216     
   3100000   1.0441825      0.028855956    31.46407       31.492926      1.5601555      33.053082     -2.1599265e-05  16777216     
   3110000   1.02368        0.01053916     31.577341      31.58788       1.5295219      33.117402      2.2686021e-06  16777216     
   3120000   0.91089699     0.014269511    31.387162      31.401432      1.3610082      32.76244       5.4642466e-06  16777216     
   3130000   0.98514848     0.027022128    31.474472      31.501494      1.4719504      32.973444     -2.1262785e-06  16777216     
   3140000   0.95203174     0.008726962    31.367104      31.375831      1.4224693      32.798301      7.3417415e-06  16777216     
   3150000   0.9937488      0.0064755649   31.368345      31.374821      1.4848005      32.859621     -2.4768113e-06  16777216     
   3160000   1.1178125      0.013282823    31.471069      31.484352      1.6701691      33.154521     -8.4668416e-06  16777216     
   3170000   1.0111183      0.038701683    31.469346      31.508048      1.5107529      33.018801      5.7539974e-06  16777216     
   3180000   1.0121609      0.01073126     31.520039      31.53077       1.5123107      33.04308      -4.0586039e-06  16777216     
   3190000   0.98838103     0.030232189    31.464028      31.494261      1.4767803      32.971041     -1.2446051e-05  16777216     
   3200000   0.95584444     0.017435203    31.44374       31.461175      1.428166       32.889341     -5.6426398e-06  16777216     
   3210000   1.0452993      0.017110169    31.425676      31.442786      1.5618242      33.004611      1.1740257e-05  16777216     
   3220000   0.98557365     0.0084960971   31.382813      31.391309      1.4725856      32.863895      1.775185e-05   16777216     
   3230000   0.96263307     0.013175036    31.47477       31.487945      1.4383092      32.926254     -4.4097487e-06  16777216     
   3240000   1.0240648      0.01834357     31.436114      31.454458      1.5300968      32.984554     -9.6127726e-06  16777216     
   3250000   1.0875533      0.025085904    31.42866       31.453745      1.6249575      33.078703      9.3641096e-06  16777216     
   3260000   1.026458       0.0026076967   31.388383      31.39099       1.5336727      32.924663     -9.1176056e-06  16777216     
   3270000   0.98915317     0.01336647     31.476897      31.490263      1.4779339      32.968197     -1.0907937e-05  16777216     
   3280000   0.96351324     0.013364997    31.399262      31.412627      1.4396243      32.852251     -4.5726735e-06  16777216     
   3290000   1.0457974      0.022377474    31.390377      31.412755      1.5625683      32.975323     -8.2925572e-06  16777216     
   3300000   0.95621437     0.039508228    31.505637      31.545145      1.4287187      32.973864     -1.5739734e-05  16777216     
   3310000   0.99825012     0.012091187    31.411546      31.423637      1.4915261      32.915163      1.4133671e-05  16777216     
   3320000   0.98550746     0.015648609    31.426066      31.441714      1.4724867      32.914201      1.0967712e-05  16777216     
   3330000   0.97132563     0.0099338941   31.389836      31.39977       1.4512971      32.851067      5.5439447e-06  16777216     
   3340000   0.97089726     0.015237342    31.446976      31.462214      1.450657       32.912871     -1.5768502e-05  16777216     
   3350000   0.97338314     0.021013032    31.439796      31.460809      1.4543713      32.91518       1.0429293e-05  16777216     
   3360000   0.93024499     0.016891405    31.385543      31.402435      1.3899168      32.792352      1.5748811e-05  16777216     
   3370000   0.89026889     0.03770969     31.409558      31.447268      1.3301869      32.777455     -1.3857182e-05  16777216     
   3380000   1.0156258      0.0072291727   31.49          31.497229      1.5174877      33.014717      3.2747516e-06  16777216     
   3390000   1.045064       0.012794232    31.395373      31.408167      1.5614727      32.96964      -5.2688623e-06  16777216     
   3400000   1.0124179      0.015326114    31.572953      31.588279      1.5126947      33.100974     -1.0514991e-05  16777216     
   3410000   0.976486       0.022963015    31.481119      31.504082      1.4590074      32.963089     -2.8411979e-06  16777216     
   3420000   0.96344724     0.039107777    31.459018      31.498125      1.4395257      32.937651      2.841013e-06   16777216     
   3430000   1.0227186      0.021322967    31.430814      31.452137      1.5280854      32.980222     -1.2466975e-05  16777216     
   3440000   0.94012413     0.026234806    31.490691      31.516926      1.4046777      32.921604     -1.2216138e-05  16777216     
   3450000   1.0667164      0.010394267    31.371515      31.381909      1.5938244      32.975734      6.8986332e-06  16777216     
   3460000   0.9528242      0.021524376    31.424108      31.445632      1.4236534      32.869286     -2.6678284e-06  16777216     
   3470000   0.99237451     0.02637409     31.376389      31.402763      1.4827471      32.88551       9.4354551e-06  16777216     
   3480000   0.93496807     0.010438595    31.376248      31.386687      1.3969738      32.783661      1.2756483e-05  16777216     
   3490000   1.0918228      0.017637318    31.445014      31.462651      1.6313367      33.093988     -7.6913421e-06  16777216     
   3500000   0.9330654      0.047395939    31.481951      31.529347      1.3941309      32.923477      1.391442e-05   16777216     
   3510000   1.0264368      0.01776747     31.38171       31.399477      1.5336409      32.933118     -7.048715e-06   16777216     
   3520000   0.92901152     0.0075421266   31.443316      31.450858      1.3880739      32.838932     -1.4175029e-05  16777216     
   3530000   1.0173776      0.023638805    31.409492      31.433131      1.5201053      32.953236      1.7619567e-05  16777216     
   3540000   0.91867417     0.015473463    31.362109      31.377582      1.3726284      32.75021      -1.4004325e-07  16777216     
Loop time of 154.769 on 4 procs for 1500000 steps with 256 atoms

Performance: 8373786.399 tau/day, 9691.882 timesteps/s
100.0% CPU use with 4 MPI tasks x 1 OpenMP threads

MPI task timing breakdown:
Section |  min time  |  avg time  |  max time  |%varavg| %total
---------------------------------------------------------------
Pair    | 0.13005    | 2.2993     | 7.2257     | 191.8 |  1.49
Bond    | 0.18316    | 5.448      | 17.484     | 304.0 |  3.52
Neigh   | 91.28      | 91.359     | 91.433     |   0.7 | 59.03
Comm    | 9.7744     | 17.201     | 30.923     | 196.1 | 11.11
Output  | 0.046192   | 0.063128   | 0.06887    |   3.9 |  0.04
Modify  | 0.4648     | 6.4318     | 20.036     | 316.6 |  4.16
Other   |            | 31.97      |            |       | 20.65

Nlocal:             64 ave         190 max           0 min
Histogram: 2 0 0 1 0 0 0 0 0 1
Nghost:           17.5 ave          38 max           0 min
Histogram: 2 0 0 0 0 0 0 0 1 1
Neighs:         310.75 ave         947 max           0 min
Histogram: 2 0 0 1 0 0 0 0 0 1

Total # of neighbors = 1243
Ave neighs/atom = 4.8554688
Ave special neighs/atom = 1.9921875
Neighbor list builds = 44653
Dangerous builds = 0
write_restart 	restart._N256_k0.5.dat
System init for write_restart ...
Generated 0 of 0 mixed pair_coeff terms from geometric mixing rule
Total wall time: 0:02:34
