ITEM: TIMESTEP
2440000
ITEM: NUMBER OF ATOMS
32
ITEM: BOX BOUNDS mm mm mm
-2.3098038466608784e+01 1.6000000000000000e+01
-1.6000000000000000e+01 4.0493508959898442e+01
-3.0710574022460204e+01 1.6000000000000000e+01
ITEM: ATOMS id type x y z
1 1 -18.4331 33.0044 -25.1938
2 1 -19.2705 33.2131 -25.5611
3 1 -19.5125 33.7285 -24.8653
4 1 -19.4211 34.2442 -24.0268
5 1 -20.2812 33.9673 -23.6879
6 1 -20.8631 33.2303 -23.5963
7 1 -21.5165 33.3103 -22.8841
8 1 -21.8168 33.6901 -22.115
9 1 -22.0285 34.4289 -22.6732
10 1 -22.6706 34.2818 -23.3018
11 1 -23.0941 34.3115 -24.176
12 1 -22.4744 34.8761 -24.6763
13 1 -21.5157 34.9073 -24.7644
14 1 -21.8325 35.0333 -25.618
15 1 -21.1294 35.5743 -26.0218
16 1 -21.2055 36.3696 -26.5824
17 1 -20.5679 35.8533 -27.0762
18 1 -19.807 35.27 -26.9591
19 1 -19.0379 34.7456 -26.6265
20 1 -18.9488 35.0097 -27.5851
21 1 -18.513 35.2511 -28.3724
22 1 -17.8092 34.6905 -28.6701
23 1 -17.7302 34.8802 -27.7227
24 1 -17.9455 35.7318 -27.3781
25 1 -18.3012 36.5537 -27.6303
26 1 -17.9106 37.2964 -27.9799
27 1 -18.4602 38.0462 -27.8414
28 1 -19.112 38.4649 -28.3464
29 1 -18.6815 39.155 -28.816
30 1 -17.9776 39.6344 -29.3876
31 1 -18.14 40.4697 -29.8091
32 1 -18.0071 40.4879 -30.7059
ITEM: TIMESTEP
2450000
ITEM: NUMBER OF ATOMS
32
ITEM: BOX BOUNDS mm mm mm
-2.0178248457897521e+01 1.6000000000000000e+01
-1.6000000000000000e+01 3.3407143017483058e+01
-3.3996908615863610e+01 1.6000000000000000e+01
ITEM: ATOMS id type x y z
1 1 -14.6379 29.8161 -30.1274
2 1 -15.4825 29.4862 -29.7402
3 1 -16.2059 29.9026 -30.227
4 1 -17.1565 29.8695 -30.0172
5 1 -17.8378 30.2881 -30.5701
6 1 -17.7369 30.9641 -31.1809
7 1 -18.6617 30.8119 -31.3671
8 1 -18.9422 29.9646 -31.338
9 1 -19.0359 29.0195 -31.3037
10 1 -19.7845 28.817 -30.7384
11 1 -20.183 29.6907 -30.4503
12 1 -20.1791 30.6599 -30.187
13 1 -20.1648 31.3426 -29.5469
14 1 -19.7061 31.4882 -28.7388
15 1 -18.7358 31.4837 -28.5896
16 1 -17.8826 31.5644 -28.9916
17 1 -18.0996 31.4018 -29.8972
18 1 -18.3499 31.6503 -30.7229
19 1 -18.4121 31.8015 -31.6253
20 1 -17.8287 32.4585 -31.3867
21 1 -16.934 32.2788 -31.735
22 1 -16.1999 32.5849 -32.167
23 1 -15.6328 32.651 -32.937
24 1 -15.0515 33.3261 -33.2225
25 1 -14.1343 33.3709 -32.981
26 1 -13.6478 32.6757 -32.7212
27 1 -12.8715 33.1303 -32.5259
28 1 -12.6294 32.5478 -33.2204
29 1 -12.2254 31.8319 -33.6452
30 1 -12.5901 31.0211 -33.219
31 1 -12.5331 30.1798 -33.5618
32 1 -12.0038 30.8444 -33.9837
ITEM: TIMESTEP
2460000
ITEM: NUMBER OF ATOMS
32
ITEM: BOX BOUNDS mm mm mm
-1.8413392780461130e+01 1.6000000000000000e+01
-1.6000000000000000e+01 3.7149588546700414e+01
-3.3038598477128964e+01 1.6000000000000000e+01
ITEM: ATOMS id type x y z
1 1 -17.4063 30.9736 -31.735
2 1 -17.4292 30.0957 -31.3919
3 1 -17.2393 29.2064 -31.1087
4 1 -18.0683 29.0802 -30.7433
5 1 -18.5216 28.6007 -29.9224
6 1 -17.6515 28.3263 -29.7202
7 1 -17.4297 29.2187 -29.791
8 1 -16.6954 29.8707 -29.7421
9 1 -16.67 30.8166 -29.585
10 1 -16.8599 31.2837 -30.3879
11 1 -16.2485 31.789 -29.9028
12 1 -15.8354 32.5965 -30.203
13 1 -14.9007 32.8685 -30.2096
14 1 -15.3939 33.6349 -30.2395
15 1 -16.2405 33.947 -30.1935
16 1 -16.5207 34.8511 -30.0392
17 1 -17.2405 35.282 -29.5705
18 1 -17.6237 35.7486 -30.3638
19 1 -17.307 35.3146 -31.1187
20 1 -17.0043 35.6808 -31.9528
21 1 -17.1984 35.6265 -32.8628
22 1 -16.2981 35.5119 -33.1857
23 1 -15.6342 34.9163 -32.9725
24 1 -14.7497 35.3336 -32.8131
25 1 -13.9184 35.3585 -32.4175
26 1 -13.7741 34.6569 -31.7855
27 1 -14.1832 34.8167 -30.9704
28 1 -14.7858 35.0554 -30.3201
29 1 -15.3787 35.87 -30.3825
30 1 -15.6276 36.4229 -29.6975
31 1 -15.6872 37.3065 -29.3663
32 1 -14.7547 37.2336 -29.5897
ITEM: TIMESTEP
2470000
ITEM: NUMBER OF ATOMS
32
ITEM: BOX BOUNDS mm mm mm
-2.2871744006790539e+01 1.6000000000000000e+01
-1.6000000000000000e+01 3.5263744086608448e+01
-3.6574521720364238e+01 1.6000000000000000e+01
ITEM: ATOMS id type x y z
1 1 -16.9792 32.7407 -35.5097
2 1 -16.7482 33.6214 -35.6057
3 1 -17.7409 33.5711 -35.6299
4 1 -18.6392 33.3656 -35.8062
5 1 -18.975 32.6508 -36.3878
6 1 -19.7988 32.4185 -36.5699
7 1 -20.2391 33.2732 -36.5517
8 1 -21.0884 33.6087 -36.3112
9 1 -21.0523 33.548 -35.3613
10 1 -21.8206 33.9872 -35.6775
11 1 -21.7732 34.6502 -34.9949
12 1 -21.0633 35.2581 -34.7549
13 1 -20.8638 34.9243 -33.8565
14 1 -21.6807 34.4896 -33.6151
15 1 -22.3334 35.0745 -33.9599
16 1 -22.6576 34.5984 -33.2141
17 1 -22.8678 33.713 -33.2199
18 1 -22.31 33.2004 -32.6707
19 1 -22.5938 33.9376 -32.1891
20 1 -21.933 33.8731 -31.5259
21 1 -21.2249 33.6883 -32.1127
22 1 -20.8332 32.9051 -31.8386
23 1 -20.3795 33.3769 -31.1004
24 1 -20.2943 33.1694 -30.1754
25 1 -20.5872 33.0722 -29.2956
26 1 -21.2743 33.0161 -28.6378
27 1 -21.9095 33.4273 -29.1119
28 1 -21.2886 34.1596 -29.0448
29 1 -20.4431 34.3255 -28.6197
30 1 -20.1739 33.5534 -28.2071
31 1 -19.3014 33.7491 -28.5742
32 1 -19.1175 34.6005 -28.264
ITEM: TIMESTEP
2480000
ITEM: NUMBER OF ATOMS
32
ITEM: BOX BOUNDS mm mm mm
-2.7574462079351932e+01 1.6000000000000000e+01
-1.6000000000000000e+01 3.8653961065970577e+01
-3.6441446046741987e+01 1.6000000000000000e+01
ITEM: ATOMS id type x y z
1 1 -20.6823 37.779 -34.1489
2 1 -20.5668 37.3866 -34.978
3 1 -21.292 36.7995 -35.3211
4 1 -21.1737 35.9131 -35.1062
5 1 -20.5494 35.2617 -35.1932
6 1 -20.3706 34.7798 -36.0448
7 1 -21.2293 34.4573 -36.0469
8 1 -21.7334 34.3043 -35.2666
9 1 -22.4471 33.7541 -35.0813
10 1 -22.9473 34.0866 -35.7824
11 1 -22.3973 33.4902 -36.2372
12 1 -22.4826 32.8033 -35.5357
13 1 -22.4378 32.7393 -34.5814
14 1 -22.2327 31.982 -34.101
15 1 -22.2871 31.1454 -34.5259
16 1 -23.1006 30.8482 -34.9576
17 1 -24.0337 30.8176 -35.0011
18 1 -24.2966 31.6259 -35.3682
19 1 -24.7502 32.418 -35.6404
20 1 -24.5228 32.6634 -34.7507
21 1 -25.2313 32.1206 -34.5069
22 1 -25.8592 32.3882 -35.1356
23 1 -26.2 33.3094 -35.1272
24 1 -26.8171 33.957 -35.4796
25 1 -27.22 34.6577 -35.0541
26 1 -27.6656 34.7237 -34.225
27 1 -27.0803 35.4358 -34.0422
28 1 -26.7099 36.3359 -34.2623
29 1 -26.1352 36.8285 -34.8288
30 1 -26.5053 37.2746 -35.5974
31 1 -26.4641 38.0118 -36.1665
32 1 -27.0889 38.6951 -36.3156
ITEM: TIMESTEP
2490000
ITEM: NUMBER OF ATOMS
32
ITEM: BOX BOUNDS mm mm mm
-2.7672188059843798e+01 1.6000000000000000e+01
-1.6000000000000000e+01 4.0108652551132721e+01
-3.7133651045148653e+01 1.6000000000000000e+01
ITEM: ATOMS id type x y z
1 1 -17.5932 34.8477 -32.9821
2 1 -17.8942 35.4677 -33.6179
3 1 -17.756 36.3173 -33.9817
4 1 -17.2701 37.0335 -33.5664
5 1 -18.1651 37.0711 -33.2599
6 1 -18.2537 37.6005 -32.4793
7 1 -18.6718 37.557 -31.6438
8 1 -19.3729 37.5025 -31.0057
9 1 -19.9608 38.1845 -31.2087
10 1 -20.7171 38.151 -31.6822
11 1 -21.0146 37.4047 -32.1933
12 1 -21.6933 37.081 -31.5809
13 1 -22.1942 37.8469 -31.4523
14 1 -22.7457 38.5722 -31.6962
15 1 -22.9365 39.0617 -32.5198
16 1 -23.1129 38.4394 -33.2237
17 1 -23.891 38.3694 -32.7853
18 1 -24.7708 38.0022 -32.8051
19 1 -24.8672 38.4425 -33.6565
20 1 -24.4569 39.133 -34.1411
21 1 -24.3809 40.1108 -34.08
22 1 -25.313 39.8641 -34.0415
23 1 -25.5336 39.7689 -33.1473
24 1 -26.1439 39.0751 -33.1339
25 1 -26.1485 38.2135 -33.4641
26 1 -26.9982 38.3615 -33.7894
27 1 -27.523 37.7346 -34.2977
28 1 -27.7687 37.0003 -34.8955
29 1 -27.2899 37.6407 -35.4814
30 1 -27.4572 38.2544 -36.1953
31 1 -27.5157 38.216 -37.1139
32 1 -27.2906 37.2386 -36.9567
ITEM: TIMESTEP
2500000
ITEM: NUMBER OF ATOMS
32
ITEM: BOX BOUNDS mm mm mm
-2.3934644728719249e+01 1.6000000000000000e+01
-1.6000000000000000e+01 4.6815146000939166e+01
-3.5573940023055918e+01 1.6000000000000000e+01
ITEM: ATOMS id type x y z
1 1 -19.7462 36.8959 -29.6124
2 1 -20.4419 36.4522 -29.1205
3 1 -19.8907 35.6558 -29.3132
4 1 -20.1213 34.9066 -29.7833
5 1 -20.9555 35.3428 -29.8326
6 1 -21.1259 36.1446 -30.299
7 1 -21.1106 37.006 -30.724
8 1 -20.4153 37.6493 -30.6053
9 1 -20.0774 38.4312 -30.1172
10 1 -19.1781 38.798 -30.014
11 1 -19.2538 39.7377 -30.011
12 1 -19.9748 40.2813 -29.8784
13 1 -20.2301 40.9329 -30.5433
14 1 -20.3666 41.8213 -30.7721
15 1 -21.1439 42.133 -31.1628
16 1 -22.0168 42.4404 -31.5272
17 1 -22.7395 42.9961 -31.733
18 1 -23.5717 42.9387 -32.0895
19 1 -23.4221 42.3594 -32.8231
20 1 -23.5951 42.9746 -33.6151
21 1 -23.5246 43.7364 -34.2242
22 1 -23.2292 44.3758 -33.5545
23 1 -22.398 44.7552 -33.877
24 1 -21.879 44.851 -33.0722
25 1 -21.9333 45.7548 -32.7972
26 1 -22.7822 45.848 -33.183
27 1 -23.5256 46.319 -33.3311
28 1 -23.1531 46.6669 -34.1508
29 1 -22.7824 46.222 -34.8674
30 1 -22.4758 46.052 -35.74
31 1 -21.5955 46.2723 -35.3965
32 1 -21.4455 46.6274 -34.5006
ITEM: TIMESTEP
2510000
ITEM: NUMBER OF ATOMS
32
ITEM: BOX BOUNDS mm mm mm
-2.4619993648167853e+01 1.6000000000000000e+01
-1.6000000000000000e+01 4.7898030499017722e+01
-3.3541725582639764e+01 1.6000000000000000e+01
ITEM: ATOMS id type x y z
1 1 -18.3005 43.9692 -33.0416
2 1 -18.3531 43.485 -32.2157
3 1 -19.2601 43.5531 -32.2339
4 1 -19.6777 43.4099 -31.3954
5 1 -19.9188 42.5651 -31.19
6 1 -20.8275 42.8552 -31.2874
7 1 -21.5408 42.4664 -30.6793
8 1 -22.0859 41.7569 -30.6743
9 1 -22.883 41.8183 -31.058
10 1 -23.7746 41.6582 -30.6775
11 1 -24.0009 41.7582 -31.5677
12 1 -24.1679 41.8231 -32.4729
13 1 -24.7793 42.4745 -32.2766
14 1 -24.0986 43.1118 -32.0653
15 1 -23.3475 43.493 -32.5352
16 1 -22.6886 43.8567 -31.912
17 1 -21.8451 43.7953 -31.3856
18 1 -21.5757 44.5269 -30.8557
19 1 -21.9589 45.2354 -30.3565
20 1 -21.6676 46.0821 -30.0248
21 1 -21.5558 46.8956 -30.5141
22 1 -20.6493 46.8094 -30.9235
23 1 -20.785 47.5232 -30.2527
24 1 -20.8777 47.8295 -31.1254
25 1 -20.355 47.589 -31.8698
26 1 -19.4407 47.6279 -32.0935
27 1 -19.5383 46.7049 -32.3783
28 1 -19.3737 45.8248 -32.203
29 1 -19.0729 44.9534 -32.0048
30 1 -18.5144 44.882 -32.705
31 1 -17.9364 45.4338 -32.2447
32 1 -16.9737 45.4265 -31.9966
ITEM: TIMESTEP
2520000
ITEM: NUMBER OF ATOMS
32
ITEM: BOX BOUNDS mm mm mm
-2.6207107168808708e+01 1.6000000000000000e+01
-1.6000000000000000e+01 4.8513578809120389e+01
-3.0821041937633517e+01 1.6000000000000000e+01
ITEM: ATOMS id type x y z
1 1 -26.4455 41.8527 -27.6957
2 1 -25.9482 42.6185 -27.4334
3 1 -25.9367 43.2976 -26.7982
4 1 -25.7887 44.0866 -26.283
5 1 -25.1889 43.61 -25.6163
6 1 -25.4271 43.8429 -24.7267
7 1 -25.1244 44.5406 -25.3005
8 1 -24.7036 45.1886 -24.7406
9 1 -24.9835 45.963 -25.2191
10 1 -25.3361 46.1653 -26.0395
11 1 -25.6782 46.9049 -25.4913
12 1 -25.2885 47.7148 -25.3259
13 1 -24.5292 48.3088 -25.1557
14 1 -23.9431 48.1923 -25.8363
15 1 -23.2837 47.4694 -25.5736
16 1 -23.8111 47.1265 -24.9274
17 1 -24.3364 46.8034 -25.6158
18 1 -23.8763 46.9657 -26.4333
19 1 -23.4354 46.2106 -26.835
20 1 -22.5742 46.2393 -26.4721
21 1 -21.6353 46.3713 -26.461
22 1 -20.8253 46.7691 -26.666
23 1 -19.834 46.7969 -26.6177
24 1 -20.1424 46.1245 -27.2245
25 1 -20.6973 45.4054 -26.9278
26 1 -21.3294 45.9911 -27.4048
27 1 -21.6247 45.8301 -28.3532
28 1 -21.7544 45.2998 -29.128
29 1 -21.4929 45.0472 -30.0157
30 1 -21.3657 45.757 -30.6481
31 1 -22.2293 45.4295 -30.9123
32 1 -22.5772 46.1048 -30.3494
ITEM: TIMESTEP
2530000
ITEM: NUMBER OF ATOMS
32
ITEM: BOX BOUNDS mm mm mm
-2.6582333207419520e+01 1.6000000000000000e+01
-1.6000000000000000e+01 5.2320714861962337e+01
-3.1010966289595231e+01 1.6000000000000000e+01
ITEM: ATOMS id type x y z
1 1 -26.574 49.838 -30.6137
2 1 -26.0962 49.0974 -31.0123
3 1 -25.325 49.6226 -30.9329
4 1 -25.384 50.5047 -30.6335
5 1 -26.1332 50.9949 -30.5737
6 1 -26.2197 51.8757 -30.263
7 1 -25.4569 52.3164 -29.9099
8 1 -25.5446 51.4429 -29.4629
9 1 -24.7393 51.3243 -29.0487
10 1 -25.2613 50.5633 -28.9565
11 1 -25.4942 50.3378 -28.0392
12 1 -26.2285 50.3497 -27.4417
13 1 -25.8031 50.2386 -26.5894
14 1 -24.9861 50.7615 -26.801
15 1 -24.0642 50.6785 -26.6084
16 1 -23.3404 50.4431 -26.1035
17 1 -22.8599 51.2267 -26.3965
18 1 -22.5066 50.979 -27.3055
19 1 -22.0051 50.1427 -27.4359
20 1 -21.5527 49.3064 -27.271
21 1 -21.3936 49.1437 -28.1831
22 1 -20.6055 48.6299 -28.2665
23 1 -19.9142 48.0145 -28.3321
24 1 -19.2144 47.3049 -28.4636
25 1 -18.8743 46.428 -28.1481
26 1 -18.9428 45.766 -27.5368
27 1 -18.3887 45.1443 -27.041
28 1 -17.8241 44.9777 -26.2808
29 1 -16.9218 44.6214 -26.2113
30 1 -16.2396 45.257 -26.052
31 1 -16.295 45.6983 -25.1552
32 1 -17.1635 46.0464 -25.0015
ITEM: TIMESTEP
2540000
ITEM: NUMBER OF ATOMS
32
ITEM: BOX BOUNDS mm mm mm
-2.4193847510266892e+01 1.6000000000000000e+01
-1.6000000000000000e+01 4.9260156721875539e+01
-3.0397115587288489e+01 1.6000000000000000e+01
ITEM: ATOMS id type x y z
1 1 -22.6433 49.5393 -27.5798
2 1 -22.7657 48.6378 -28.0359
3 1 -22.0454 48.1471 -27.6369
4 1 -22.2438 47.5673 -26.955
5 1 -22.3913 46.637 -26.5966
6 1 -22.2446 46.2949 -25.7319
7 1 -22.8062 45.8748 -25.1544
8 1 -23.7098 45.6611 -24.9734
9 1 -24.3135 45.5963 -25.6473
10 1 -23.6133 45.5889 -26.2653
11 1 -23.2406 45.6874 -27.1319
12 1 -23.0153 44.8443 -26.9155
13 1 -22.0494 45.0074 -27.0092
14 1 -21.4673 45.7648 -26.8499
15 1 -20.6515 45.8736 -27.3047
16 1 -20.9272 46.058 -28.1824
17 1 -20.6392 45.8429 -29.0329
18 1 -20.4758 45.1325 -28.5572
19 1 -19.678 44.9685 -27.9715
20 1 -19.1109 44.4905 -27.3482
21 1 -18.9478 43.7436 -27.9655
22 1 -18.9908 43.7031 -28.9236
23 1 -19.7102 43.9217 -29.5614
24 1 -20.2107 43.9849 -30.3348
25 1 -20.414 44.8605 -30.1714
26 1 -19.6695 45.415 -29.8237
27 1 -19.2993 46.1386 -29.3802
28 1 -18.4745 46.5297 -29.1394
29 1 -17.8237 45.9069 -29.2937
30 1 -17.5713 46.7899 -29.4288
31 1 -17.8692 47.3065 -30.1963
32 1 -17.8811 48.185 -30.6461
ITEM: TIMESTEP
2550000
ITEM: NUMBER OF ATOMS
32
ITEM: BOX BOUNDS mm mm mm
-2.7492950738765654e+01 1.6000000000000000e+01
-1.6000000000000000e+01 5.3287734991390352e+01
-3.1752393963732523e+01 1.6000000000000000e+01
ITEM: ATOMS id type x y z
1 1 -27.489 50.7623 -26.4552
2 1 -27.0144 51.384 -27.0934
3 1 -26.5966 50.9673 -27.8095
4 1 -25.9051 50.3903 -27.917
5 1 -25.3086 49.6153 -27.7717
6 1 -24.8299 48.9526 -28.2602
7 1 -24.2093 48.7603 -27.5549
8 1 -23.357 49.05 -27.4352
9 1 -23.5848 49.8706 -27.8024
10 1 -23.5544 49.5084 -28.7205
11 1 -23.9884 48.7124 -28.9319
12 1 -24.0751 49.3824 -29.5983
13 1 -24.3686 50.0112 -30.3267
14 1 -23.6455 50.0667 -31
15 1 -24.0502 50.8469 -31.3954
16 1 -24.5066 51.6415 -31.662
17 1 -24.1728 52.5134 -31.6574
18 1 -24.6375 53.2821 -31.7477
19 1 -25.1271 53.0221 -30.9462
20 1 -24.5352 52.7465 -30.3025
21 1 -23.6407 52.8401 -30.3321
22 1 -22.7589 52.3937 -30.436
23 1 -21.9189 52.1489 -30.7568
24 1 -21.9665 51.2961 -30.4366
25 1 -21.0896 50.9766 -30.3731
26 1 -20.7394 50.289 -29.8755
27 1 -20.008 50.6884 -30.2899
28 1 -19.6712 51.4858 -30.7361
29 1 -18.8867 51.0566 -30.3963
30 1 -18.3241 50.3143 -30.4786
31 1 -17.4656 49.9637 -30.6066
32 1 -17.2051 50.4894 -31.3578
ITEM: TIMESTEP
2560000
ITEM: NUMBER OF ATOMS
32
ITEM: BOX BOUNDS mm mm mm
-2.8293562183997636e+01 1.6000000000000000e+01
-1.6000000000000000e+01 5.4828386082981794e+01
-3.3101610860191670e+01 1.6000000000000000e+01
ITEM: ATOMS id type x y z
1 1 -24.1308 52.4188 -31.815
2 1 -24.4063 51.9582 -32.5387
3 1 -24.8166 51.1741 -32.1905
4 1 -24.9623 50.2971 -32.4992
5 1 -25.4421 50.7386 -33.1839
6 1 -26.0796 50.6107 -32.4526
7 1 -26.9582 50.344 -32.426
8 1 -27.7332 49.7479 -32.6168
9 1 -27.966 48.9229 -32.1086
10 1 -27.9203 48.1712 -31.4962
11 1 -27.2117 48.7441 -31.4467
12 1 -26.9184 47.8373 -31.3963
13 1 -27.0203 47.243 -30.6789
14 1 -26.3028 47.1348 -30.0561
15 1 -26.1884 47.6298 -29.2798
16 1 -25.5662 48.3139 -29.0516
17 1 -25.1421 48.8353 -28.3927
18 1 -25.0828 48.7991 -27.4232
19 1 -24.1312 49.1143 -27.5517
20 1 -24.3604 49.962 -27.1482
21 1 -25.2641 50.3196 -27.4315
22 1 -25.2622 51.2011 -27.0091
23 1 -25.9151 51.6202 -27.5164
24 1 -25.9857 52.2886 -28.122
25 1 -25.4579 52.962 -28.5104
26 1 -25.815 53.7919 -28.3042
27 1 -25.3986 53.9425 -29.1228
28 1 -25.7884 54.4031 -29.831
29 1 -25.6131 55.2224 -30.3253
30 1 -25.4763 55.0155 -31.2407
31 1 -26.192 54.5596 -31.6694
32 1 -26.6503 54.0628 -32.2528
ITEM: TIMESTEP
2570000
ITEM: NUMBER OF ATOMS
32
ITEM: BOX BOUNDS mm mm mm
-2.8981637229006527e+01 1.6000000000000000e+01
-1.6000000000000000e+01 5.3671945115799609e+01
-3.1849676180409830e+01 1.6000000000000000e+01
ITEM: ATOMS id type x y z
1 1 -19.1848 49.8318 -31.9242
2 1 -19.4463 49.2665 -31.1452
3 1 -19.3614 49.0902 -30.1966
4 1 -19.1532 48.764 -29.296
5 1 -20.0038 49.0035 -29.0502
6 1 -20.6043 48.8995 -28.3546
7 1 -21.477 48.7305 -28.585
8 1 -22.2012 48.2384 -28.2944
9 1 -22.989 47.9146 -28.6399
10 1 -23.8664 47.5117 -28.6424
11 1 -23.9488 47.1959 -29.5272
12 1 -24.8203 47.5171 -29.7241
13 1 -24.6356 48.1837 -29.1175
14 1 -25.5891 48.1106 -29.2119
15 1 -26.1831 48.8116 -29.1877
16 1 -26.3069 49.4584 -28.5211
17 1 -25.9262 50.1472 -27.9827
18 1 -25.6226 50.0793 -27.1071
19 1 -25.4968 50.9475 -27.4496
20 1 -25.5311 51.7229 -27.9481
21 1 -26.0476 51.9787 -28.6801
22 1 -26.9252 51.7593 -28.4402
23 1 -27.8443 52.0504 -28.5232
24 1 -28.3971 52.4546 -27.8642
25 1 -28.8546 53.1235 -27.347
26 1 -28.4846 52.811 -26.5051
27 1 -27.76 52.4037 -26.1449
28 1 -27.9597 53.2304 -25.6922
29 1 -27.4697 53.7433 -24.9782
30 1 -27.0305 52.8916 -24.7502
31 1 -26.21 52.6775 -25.108
32 1 -25.9397 52.1167 -25.7793
ITEM: TIMESTEP
2580000
ITEM: NUMBER OF ATOMS
32
ITEM: BOX BOUNDS mm mm mm
-2.5941931870834733e+01 1.6000000000000000e+01
-1.6000000000000000e+01 5.1770800844902375e+01
-3.5213636336694428e+01 1.6000000000000000e+01
ITEM: ATOMS id type x y z
1 1 -25.8387 46.4362 -28.408
2 1 -25.3019 47.0948 -28.8971
3 1 -25.3027 47.7822 -29.6044
4 1 -25.5094 48.5415 -29.0889
5 1 -25.1014 49.1878 -29.6118
6 1 -24.6622 49.0371 -30.4436
7 1 -24.1671 49.8277 -30.5191
8 1 -23.5065 49.4964 -29.9671
9 1 -24.0351 50.0108 -29.4032
10 1 -23.7127 49.4194 -28.7562
11 1 -22.789 49.5015 -28.7179
12 1 -22.7821 50.1278 -28.0513
13 1 -21.8037 49.9883 -27.8997
14 1 -20.8593 49.7136 -27.9176
15 1 -20.9921 49.3583 -28.8139
16 1 -20.161 49.4297 -29.2861
17 1 -20.3136 48.5995 -28.988
18 1 -20.929 47.9449 -29.0954
19 1 -21.8369 47.9972 -29.3103
20 1 -22.3509 48.3701 -30.092
21 1 -22.6555 47.9808 -30.9274
22 1 -22.3432 48.4491 -31.6952
23 1 -21.9525 49.1293 -32.2371
24 1 -22.249 49.9214 -32.5954
25 1 -22.0745 49.4943 -33.4054
26 1 -22.1445 50.1654 -34.0092
27 1 -22.6373 50.6194 -34.7439
28 1 -23.4153 50.6444 -35.1814
29 1 -24.0143 50.9442 -34.5363
30 1 -24.5253 51.6963 -34.3405
31 1 -25.2653 51.7377 -33.8165
32 1 -25.5353 51.584 -32.9521
ITEM: TIMESTEP
2590000
ITEM: NUMBER OF ATOMS
32
ITEM: BOX BOUNDS mm mm mm
-2.6580445954469642e+01 1.6000000000000000e+01
-1.6000000000000000e+01 5.3821761369715986e+01
-3.3273461131358388e+01 1.6000000000000000e+01
ITEM: ATOMS id type x y z
1 1 -26.1375 44.4289 -28.4509
2 1 -26.5769 44.3782 -27.5745
3 1 -26.3094 45.2669 -27.4431
4 1 -25.9359 46.0678 -27.6737
5 1 -25.0523 46.4909 -27.7583
6 1 -24.8674 47.3794 -27.5632
7 1 -25.2299 47.7502 -28.4107
8 1 -24.7054 48.5154 -28.669
9 1 -24.2295 47.8186 -29.004
10 1 -24.355 48.2169 -29.855
11 1 -23.458 48.4821 -29.763
12 1 -22.7742 49.0853 -29.6773
13 1 -22.5849 50.0113 -29.6578
14 1 -22.0788 50.242 -30.368
15 1 -21.1144 50.2854 -30.5847
16 1 -20.4339 50.555 -30.0273
17 1 -19.9301 50.2912 -30.772
18 1 -19.0437 50.3985 -30.3677
19 1 -18.4166 51.0975 -30.2081
20 1 -18.886 51.8205 -29.7182
21 1 -19.5267 51.72 -29.0852
22 1 -20.3906 51.4343 -29.2575
23 1 -20.3531 52.223 -29.7439
24 1 -20.1014 51.9697 -30.6594
25 1 -19.9052 51.5033 -31.4163
26 1 -20.1141 51.3758 -32.2797
27 1 -20.505 52.167 -32.5971
28 1 -21.1337 52.5692 -33.167
29 1 -21.1965 53.4798 -33.2487
30 1 -21.0129 53.5737 -32.3115
31 1 -20.3021 53.8139 -31.7584
32 1 -20.4947 53.2846 -31.0097
ITEM: TIMESTEP
2600000
ITEM: NUMBER OF ATOMS
32
ITEM: BOX BOUNDS mm mm mm
-2.2102903851378191e+01 1.6000000000000000e+01
-1.6000000000000000e+01 5.0243523699263285e+01
-3.4677788922903837e+01 1.6000000000000000e+01
ITEM: ATOMS id type x y z
1 1 -22.1095 42.8965 -31.2558
2 1 -21.9764 43.7936 -31.1558
3 1 -21.3337 43.8227 -30.4632
4 1 -20.4776 44.0191 -30.7999
5 1 -19.8034 44.5925 -31.1847
6 1 -19.8286 45.5276 -31.1948
7 1 -19.0628 45.9023 -30.7195
8 1 -18.567 45.8559 -31.5395
9 1 -19.1754 46.5877 -31.6387
10 1 -18.9322 47.4477 -31.4551
11 1 -18.2162 47.3236 -32.1566
12 1 -18.0351 47.2997 -33.0453
13 1 -17.8568 48.1966 -33.2579
14 1 -17.1543 48.1761 -33.8104
15 1 -16.9371 47.8801 -34.7088
16 1 -16.0419 47.6968 -34.4111
17 1 -15.8597 47.3576 -33.5674
18 1 -16.5 47.4918 -32.8529
19 1 -15.9842 48.1075 -32.4004
20 1 -15.1118 48.2213 -32.0399
21 1 -15.5045 47.3767 -31.9861
22 1 -15.1417 47.2568 -31.1374
23 1 -14.7346 47.3191 -30.288
24 1 -14.0972 47.8766 -30.7368
25 1 -14.5314 48.638 -30.5232
26 1 -14.7028 49.5084 -30.2008
27 1 -15.6092 49.4293 -30.1568
28 1 -15.363 50.0731 -30.797
29 1 -16.3041 50.151 -30.6385
30 1 -16.8834 49.5277 -30.2471
31 1 -17.7731 49.2455 -30.4331
32 1 -18.2002 48.8212 -29.7073
ITEM: TIMESTEP
2610000
ITEM: NUMBER OF ATOMS
32
ITEM: BOX BOUNDS mm mm mm
-1.8690671327389364e+01 1.6000000000000000e+01
-1.6000000000000000e+01 5.2218571155355953e+01
-3.2745482370319223e+01 1.6000000000000000e+01
ITEM: ATOMS id type x y z
1 1 -14.769 33.4663 -30.643
2 1 -15.1644 34.3308 -31.0841
3 1 -15.9137 34.8953 -31.2606
4 1 -15.8052 35.8443 -31.0781
5 1 -15.0923 36.5447 -31.1403
6 1 -15.8661 37.0283 -31.3741
7 1 -16.3635 37.7177 -31.0409
8 1 -16.0609 37.5783 -30.1813
9 1 -16.0191 38.4226 -29.7911
10 1 -15.1465 38.7361 -29.4965
11 1 -15.0423 39.6081 -29.772
12 1 -14.4218 40.2841 -29.4019
13 1 -14.1007 40.9142 -28.8141
14 1 -14.5226 41.6071 -29.2679
15 1 -14.7666 42.0468 -30.1141
16 1 -14.9112 42.7337 -30.7945
17 1 -15.3093 43.592 -30.8462
18 1 -16.2106 43.7944 -31.0656
19 1 -16.3707 44.6366 -31.4273
20 1 -16.8501 45.4058 -31.3918
21 1 -17.5467 45.7289 -30.824
22 1 -18.4284 45.6203 -30.4062
23 1 -18.4397 46.5372 -29.9112
24 1 -18.5687 47.4424 -30.0704
25 1 -18.5659 48.3309 -30.4833
26 1 -18.2553 49.0691 -30.9834
27 1 -18.2065 49.9386 -30.7656
28 1 -17.9363 50.2028 -29.9061
29 1 -17.3584 50.5815 -30.5352
30 1 -17.1274 51.3056 -31.0555
31 1 -17.0173 51.8866 -31.8503
32 1 -16.9009 52.5348 -32.4788
ITEM: TIMESTEP
2620000
ITEM: NUMBER OF ATOMS
32
ITEM: BOX BOUNDS mm mm mm
-2.2355252332946595e+01 1.6000000000000000e+01
-1.6000000000000000e+01 4.8010249904904761e+01
-3.3814393718179154e+01 1.6000000000000000e+01
ITEM: ATOMS id type x y z
1 1 -22.5698 38.8892 -30.7788
2 1 -21.8971 39.4701 -31.1194
3 1 -22.3406 38.876 -31.7307
4 1 -21.4864 38.8638 -32.1245
5 1 -20.797 39.4917 -32.3741
6 1 -20.7907 40.3551 -32.792
7 1 -20.2823 41.0398 -33.1512
8 1 -19.503 41.4033 -32.7208
9 1 -18.8355 41.674 -32.116
10 1 -18.389 41.8832 -31.31
11 1 -17.9791 41.3312 -30.7388
12 1 -17.0412 41.3954 -30.6848
13 1 -16.6116 41.6335 -29.8306
14 1 -16.0088 42.3472 -30.0438
15 1 -15.5236 42.6106 -29.2637
16 1 -14.9314 43.2399 -29.6806
17 1 -14.4614 43.594 -30.4668
18 1 -14.7652 44.1577 -31.1483
19 1 -15.1289 45.0051 -30.8778
20 1 -15.8879 45.4137 -30.4745
21 1 -16.6051 45.9674 -30.2652
22 1 -17.4829 46.2181 -30.6123
23 1 -17.6969 46.1168 -31.5447
24 1 -17.2103 46.2311 -32.3589
25 1 -16.4141 46.4965 -31.933
26 1 -15.5686 46.9251 -31.9939
27 1 -14.66 47.089 -32.1329
28 1 -13.8122 47.4261 -32.4381
29 1 -12.9033 47.5161 -32.5819
30 1 -12.6115 47.9267 -33.3207
31 1 -13.436 47.583 -33.6168
32 1 -14.3588 47.6815 -33.4154
ITEM: TIMESTEP
2630000
ITEM: NUMBER OF ATOMS
32
ITEM: BOX BOUNDS mm mm mm
-1.6904245507511785e+01 1.6000000000000000e+01
-1.6000000000000000e+01 4.8368142040450252e+01
-2.7104310266699986e+01 1.6000000000000000e+01
ITEM: ATOMS id type x y z
1 1 -16.8138 39.5401 -23.9743
2 1 -16.446 40.1186 -24.6476
3 1 -15.6867 39.8908 -25.3042
4 1 -14.8408 40.2546 -25.109
5 1 -14.4412 41.0484 -25.2788
6 1 -14.3042 41.1382 -24.4025
7 1 -14.9094 41.724 -23.915
8 1 -15.5354 42.4218 -24.0848
9 1 -15.4597 43.1791 -24.6726
10 1 -14.6511 43.6618 -24.7877
11 1 -15.2798 44.1519 -25.2729
12 1 -15.8108 44.0437 -26.0084
13 1 -15.339 43.4122 -26.5407
14 1 -14.4879 43.1456 -26.7957
15 1 -13.8124 43.9174 -26.7455
16 1 -12.9653 44.3017 -26.8364
17 1 -12.0147 44.2762 -26.7808
18 1 -11.3546 44.534 -26.0663
19 1 -11.2795 45.408 -25.6478
20 1 -11.1784 45.9986 -26.2984
21 1 -11.4316 46.4901 -25.5429
22 1 -10.8154 46.287 -24.8216
23 1 -11.5598 45.7347 -24.6586
24 1 -12.4793 45.6154 -24.3247
25 1 -12.8556 46.2217 -23.7013
26 1 -13.6493 45.9295 -23.2665
27 1 -13.8655 46.8457 -23.4229
28 1 -14.1045 47.7576 -23.6971
29 1 -13.3177 48.0847 -23.228
30 1 -13.272 48.3858 -22.3855
31 1 -13.5154 48.1387 -21.4736
32 1 -13.5641 48.1364 -20.5104
ITEM: TIMESTEP
2640000
ITEM: NUMBER OF ATOMS
32
ITEM: BOX BOUNDS mm mm mm
-1.7172493713729391e+01 1.6000000000000000e+01
-1.6000000000000000e+01 4.7088868380246609e+01
-3.0045656158531642e+01 1.6000000000000000e+01
ITEM: ATOMS id type x y z
1 1 -15.5556 40.5934 -28.1296
2 1 -16.2711 40.0781 -28.2768
3 1 -16.6197 39.1669 -28.5018
4 1 -16.4425 39.6276 -29.3085
5 1 -17.1081 40.2345 -29.5441
6 1 -17.1708 40.7845 -28.8084
7 1 -16.5968 41.4463 -28.4438
8 1 -16.8493 42.0143 -29.1649
9 1 -16.9733 41.4339 -29.8522
10 1 -16.1506 41.0083 -29.7848
11 1 -15.2113 41.0994 -29.9752
12 1 -14.3093 41.5 -30.0685
13 1 -14.4569 41.2101 -29.1457
14 1 -14.0883 41.9453 -28.6725
15 1 -14.0878 42.7778 -28.201
16 1 -14.3824 43.5448 -28.6663
17 1 -13.8521 44.3505 -28.5337
18 1 -13.485 43.9987 -27.7484
19 1 -13.1818 44.8678 -27.6735
20 1 -12.5145 44.3696 -28.1706
21 1 -12.3548 44.1486 -27.2481
22 1 -11.7495 44.5404 -26.5658
23 1 -12.299 44.8008 -25.8314
24 1 -11.9068 45.5948 -26.1106
25 1 -11.0515 45.7435 -26.571
26 1 -10.5268 45.0722 -26.9318
27 1 -9.67634 45.1126 -26.5406
28 1 -9.1188 45.8261 -26.761
29 1 -8.48026 46.3438 -26.2984
30 1 -8.94697 47.0398 -26.7547
31 1 -9.65867 46.7584 -27.308
32 1 -8.80624 46.4841 -27.6383
ITEM: TIMESTEP
2650000
ITEM: NUMBER OF ATOMS
32
ITEM: BOX BOUNDS mm mm mm
-1.6000000000000000e+01 1.6000000000000000e+01
-1.6000000000000000e+01 4.8009275314049290e+01
-2.7884042463324491e+01 1.6000000000000000e+01
ITEM: ATOMS id type x y z
1 1 -4.75501 46.8234 -26.4368
2 1 -5.44835 46.2237 -26.4507
3 1 -6.42544 45.9245 -26.3509
4 1 -7.18632 46.513 -26.3826
5 1 -8.08607 46.7263 -26.1529
6 1 -8.24612 45.8252 -26.2752
7 1 -8.43418 45.6705 -27.195
8 1 -9.12792 45.0127 -27.236
9 1 -9.75339 44.8934 -27.8918
10 1 -10.1791 44.5834 -27.1223
11 1 -10.4502 44.4375 -26.2182
12 1 -9.84866 45.1539 -26.0326
13 1 -9.12962 44.5778 -26.0031
14 1 -8.53561 43.9806 -25.5396
15 1 -8.39773 44.4461 -24.7353
16 1 -8.04825 43.9977 -23.9891
17 1 -7.94987 43.2676 -23.3116
18 1 -7.36116 43.0354 -22.6157
19 1 -7.66144 42.8828 -21.7733
20 1 -8.29712 43.563 -21.5022
21 1 -8.14514 44.2504 -22.0878
22 1 -7.83749 44.8596 -21.4765
23 1 -8.13361 45.6234 -21.0267
24 1 -7.67703 46.3616 -21.3564
25 1 -8.06793 45.8795 -22.0154
26 1 -7.52637 45.5958 -22.7079
27 1 -6.58339 45.6675 -22.7233
28 1 -6.85916 46.2804 -23.3812
29 1 -6.67242 46.2758 -24.3182
30 1 -7.1394 46.9679 -24.8212
31 1 -8.00343 47.1274 -25.0152
32 1 -7.6796 48.0253 -24.8005
ITEM: TIMESTEP
2660000
ITEM: NUMBER OF ATOMS
32
ITEM: BOX BOUNDS mm mm mm
-1.6000000000000000e+01 1.6000000000000000e+01
-1.6000000000000000e+01 4.7186040213014174e+01
-2.8526342167794002e+01 1.6000000000000000e+01
ITEM: ATOMS id type x y z
1 1 -8.56354 43.4143 -28.0911
2 1 -8.67045 42.5092 -27.9537
3 1 -8.87568 41.6493 -28.2936
4 1 -8.37496 40.8046 -28.2402
5 1 -9.24428 40.6596 -27.8257
6 1 -9.73173 41.5539 -27.7514
7 1 -9.35603 42.2088 -27.2514
8 1 -9.39823 42.6355 -26.4156
9 1 -10.2539 42.8417 -26.1791
10 1 -10.7312 43.6855 -26.2008
11 1 -11.5238 44.1437 -26.3521
12 1 -11.41 44.2916 -27.2357
13 1 -10.8937 45.1117 -27.2873
14 1 -10.1888 45.7114 -27.1925
15 1 -9.39961 45.702 -26.5806
16 1 -8.9059 46.3937 -26.0701
17 1 -9.42713 46.4944 -25.2568
18 1 -8.84127 46.6032 -24.533
19 1 -8.03412 46.5462 -24.9655
20 1 -7.85075 45.9367 -25.6796
21 1 -7.61688 45.1373 -25.3017
22 1 -7.06403 44.4157 -25.4691
23 1 -6.76779 43.5226 -25.7651
24 1 -7.46206 42.8833 -25.8027
25 1 -7.89325 42.4771 -25.063
26 1 -7.60658 41.6419 -25.2362
27 1 -7.28153 40.8988 -25.7476
28 1 -7.9355 40.6363 -25.1283
29 1 -7.64026 40.8723 -24.2578
30 1 -7.86613 40.1168 -23.7624
31 1 -7.75335 40.4891 -22.9353
32 1 -7.62405 40.8025 -22.0712
ITEM: TIMESTEP
2670000
ITEM: NUMBER OF ATOMS
32
ITEM: BOX BOUNDS mm mm mm
-1.6000000000000000e+01 1.6000000000000000e+01
-1.6000000000000000e+01 4.7079907680153653e+01
-3.4127077234821776e+01 1.6000000000000000e+01
ITEM: ATOMS id type x y z
1 1 -10.2372 43.6977 -33.9209
2 1 -10.6627 44.1855 -34.6086
3 1 -10.5647 44.8376 -33.9224
4 1 -10.7918 45.5784 -33.401
5 1 -10.7503 44.9605 -32.6639
6 1 -10.0332 45.0767 -32.0582
7 1 -9.2337 45.5492 -31.7877
8 1 -8.97758 46.4882 -31.9619
9 1 -8.00527 46.3361 -31.9241
10 1 -7.24114 45.8677 -31.742
11 1 -7.26793 46.7537 -31.4054
12 1 -7.15529 46.8551 -30.5187
13 1 -7.47875 46.6658 -29.6766
14 1 -7.87286 46.2612 -28.9676
15 1 -7.59349 45.4426 -28.5405
16 1 -7.08245 44.9541 -29.1318
17 1 -6.70622 44.8843 -28.2833
18 1 -6.07755 45.0817 -27.5782
19 1 -5.45786 45.0979 -26.8967
20 1 -4.76564 44.7502 -26.3112
21 1 -4.85561 44.5599 -25.4068
22 1 -5.26124 43.8186 -25.0281
23 1 -6.18401 43.9892 -25.1385
24 1 -6.94531 44.493 -25.392
25 1 -7.80967 44.7401 -25.5022
26 1 -8.44691 45.2347 -25.0362
27 1 -8.43875 45.9706 -25.664
28 1 -9.36674 46.0226 -25.7356
29 1 -10.1286 46.2622 -25.2542
30 1 -10.8972 46.7096 -24.9546
31 1 -11.3578 46.4271 -24.1806
32 1 -11.3902 45.9035 -23.3604
ITEM: TIMESTEP
2680000
ITEM: NUMBER OF ATOMS
32
ITEM: BOX BOUNDS mm mm mm
-1.6000000000000000e+01 1.6000000000000000e+01
-1.6000000000000000e+01 4.9617725110233010e+01
-3.1121780750427675e+01 1.6000000000000000e+01
ITEM: ATOMS id type x y z
1 1 -1.838 40.8658 -31.1215
2 1 -2.29972 40.6376 -30.3
3 1 -2.12107 40.1073 -29.5082
4 1 -2.61945 39.5659 -28.8439
5 1 -3.55164 39.621 -28.9579
6 1 -4.12844 38.9524 -29.1623
7 1 -4.84724 39.5679 -29.1802
8 1 -5.80341 39.6295 -29.3073
9 1 -6.70283 39.4639 -29.2021
10 1 -6.51456 40.3128 -28.7686
11 1 -6.74127 41.1627 -28.8752
12 1 -7.46688 41.6801 -29.1705
13 1 -7.35129 42.5436 -29.5253
14 1 -7.54921 43.2483 -28.9495
15 1 -7.77202 43.227 -27.9807
16 1 -8.27255 43.126 -27.1775
17 1 -8.89063 43.8111 -27.3701
18 1 -8.73473 44.6972 -27.6394
19 1 -8.03464 45.1833 -27.9479
20 1 -8.42564 46.0797 -28.1371
21 1 -8.95801 46.8652 -28.025