ITEM: TIMESTEP
290000
ITEM: NUMBER OF ATOMS
32
ITEM: BOX BOUNDS mm mm mm
-1.6000000000000000e+01 1.9187401761362910e+01
-1.6000000000000000e+01 1.6989168709483859e+01
-1.6000000000000000e+01 1.6000000000000000e+01
ITEM: ATOMS id type x y z
1 1 18.0072 16.2364 -7.27156
2 1 17.0318 16.4198 -7.22568
3 1 16.2832 16.6372 -6.70548
4 1 16.7885 16.8878 -5.90753
5 1 16.5978 16.0928 -5.4484
6 1 15.9316 16.5464 -4.98632
7 1 15.2935 15.9907 -5.45943
8 1 14.3426 16.0044 -5.44658
9 1 13.7683 15.9633 -6.13723
10 1 14.5623 16.111 -6.63774
11 1 15.451 16.1347 -7.0928
12 1 15.605 16.986 -7.55621
13 1 15.8742 16.6602 -8.39439
14 1 16.4354 16.4575 -9.11657
15 1 16.8794 16.8252 -9.91142
16 1 16.5058 16.1875 -10.4395
17 1 16.5167 15.6673 -11.2408
18 1 16.007 14.9262 -11.4857
19 1 16.0569 14.082 -11.1575
20 1 15.1985 13.8552 -11.0164
21 1 15.2074 13.1531 -11.6152
22 1 15.2369 13.0733 -12.5509
23 1 15.7987 12.6187 -13.1975
24 1 16.2555 13.4237 -13.3621
25 1 16.9728 13.7803 -13.8349
26 1 17.2925 13.3162 -13.0883
27 1 17.9331 12.8947 -12.4786
28 1 18.1838 13.1384 -11.5688
29 1 18.1686 13.0451 -10.6582
30 1 18.7462 12.472 -10.1761
31 1 18.4023 11.6327 -10.2312
32 1 19.1842 11.5885 -9.74293
ITEM: TIMESTEP
300000
ITEM: NUMBER OF ATOMS
32
ITEM: BOX BOUNDS mm mm mm
-1.6000000000000000e+01 2.0370352518819125e+01
-1.6000000000000000e+01 1.9049043557400438e+01
-1.6000000000000000e+01 1.6000000000000000e+01
ITEM: ATOMS id type x y z
1 1 14.3286 17.7554 -4.67975
2 1 14.2153 18.5695 -5.2641
3 1 14.5238 18.3024 -6.06026
4 1 15.422 18.5463 -5.98448
5 1 16.3092 18.6436 -5.68415
6 1 16.6602 18.0055 -6.37458
7 1 17.3507 18.0035 -6.9914
8 1 17.4275 18.8702 -7.33429
9 1 16.614 19.2816 -7.38413
10 1 15.9565 18.7497 -7.83371
11 1 15.3565 18.282 -8.445
12 1 15.3885 18.2884 -9.42778
13 1 15.5188 17.5045 -9.9426
14 1 16.2163 16.9552 -9.73391
15 1 16.1653 16.0012 -9.89364
16 1 15.5979 15.4633 -10.4449
17 1 14.7227 15.4539 -10.2822
18 1 14.0541 15.618 -10.8679
19 1 14.5289 14.9035 -11.2199
20 1 14.856 13.9619 -11.3573
21 1 15.0827 13.5488 -12.1035
22 1 15.983 13.5802 -12.5898
23 1 16.7469 13.7685 -13.1396
24 1 16.752 14.6875 -13.2522
25 1 17.5213 14.51 -13.7823
26 1 18.4801 14.4627 -13.671
27 1 18.7212 13.7017 -14.328
28 1 18.6725 12.7746 -14.4934
29 1 19.4407 12.2601 -14.6188
30 1 19.1964 11.9042 -15.5179
31 1 19.6689 11.2301 -15.9896
32 1 19.9882 10.4916 -15.4277
ITEM: TIMESTEP
310000
ITEM: NUMBER OF ATOMS
32
ITEM: BOX BOUNDS mm mm mm
-1.6000000000000000e+01 2.0576715958802069e+01
-1.6000000000000000e+01 1.7517207059328967e+01
-1.6548544634586126e+01 1.6000000000000000e+01
ITEM: ATOMS id type x y z
1 1 19.4003 15.202 -9.3396
2 1 20.1274 15.0686 -9.94884
3 1 20.7097 14.9516 -10.6952
4 1 19.8911 14.971 -11.06
5 1 19.1974 14.9641 -10.3546
6 1 18.6262 14.2846 -9.97548
7 1 18.9394 13.6263 -10.5747
8 1 19.3432 13.351 -11.3214
9 1 19.4852 13.1572 -12.2559
10 1 19.9362 12.4412 -11.8069
11 1 19.7813 11.4824 -11.5861
12 1 19.7098 11.4288 -12.4609
13 1 18.8753 11.4348 -12.8019
14 1 18.5057 12.2603 -12.5148
15 1 18.0059 12.9036 -12.1027
16 1 17.0821 13.0496 -11.9644
17 1 16.3151 13.5357 -11.7949
18 1 15.6179 12.9668 -11.9454
19 1 14.7611 13.4564 -12.0197
20 1 14.2269 12.6934 -11.8876
21 1 13.7822 12.8474 -12.6814
22 1 13.4024 12.7652 -13.4978
23 1 14.0286 13.4122 -13.7567
24 1 13.3226 14.1386 -13.7546
25 1 13.7169 14.8666 -13.4751
26 1 13.2082 14.9811 -14.2776
27 1 12.676 15.3001 -14.9589
28 1 12.9925 16.209 -15.0644
29 1 13.7258 16.5901 -14.6559
30 1 14.1894 17.4789 -14.8154
31 1 14.9239 17.565 -15.5194
32 1 14.5572 17.8717 -16.3622
ITEM: TIMESTEP
320000
ITEM: NUMBER OF ATOMS
32
ITEM: BOX BOUNDS mm mm mm
-1.6000000000000000e+01 1.8393690042093350e+01
-1.6000000000000000e+01 1.6000000000000000e+01
-1.6000000000000000e+01 1.6000000000000000e+01
ITEM: ATOMS id type x y z
1 1 13.9884 7.31587 -11.2702
2 1 14.8731 7.34474 -11.6043
3 1 15.1442 8.23705 -11.5291
4 1 14.9758 8.80323 -12.2504
5 1 14.3331 9.40964 -12.6816
6 1 14.304 9.41311 -13.6098
7 1 15.2525 9.36357 -13.5439
8 1 15.8716 9.08575 -12.8971
9 1 15.7049 9.76535 -12.2479
10 1 16.5371 9.89342 -12.5632
11 1 16.9743 10.5791 -12.0588
12 1 17.4887 10.0479 -11.4604
13 1 17.417 10.2387 -10.5619
14 1 18.256 10.5364 -10.8726
15 1 18.3855 11.361 -11.4542
16 1 17.9515 11.9811 -11.9834
17 1 18.0422 12.9307 -12.0706
18 1 17.7567 13.3211 -12.9531
19 1 17.7402 13.1386 -13.8632
20 1 17.2449 12.397 -14.2193
21 1 16.8366 12.2578 -13.4481
22 1 16.381 13.0528 -13.1672
23 1 15.4193 13.0201 -12.927
24 1 15.1469 13.5394 -12.1997
25 1 14.7441 13.3494 -11.3305
26 1 15.1466 12.654 -10.8303
27 1 14.7819 11.919 -11.293
28 1 14.5026 11.6337 -12.0785
29 1 13.6309 11.1434 -12.2313
30 1 13.1735 11.0053 -13.0582
31 1 12.3157 10.6675 -13.2819
32 1 12.686 9.96756 -12.7673
ITEM: TIMESTEP
330000
ITEM: NUMBER OF ATOMS
32
ITEM: BOX BOUNDS mm mm mm
-1.6000000000000000e+01 1.6000000000000000e+01
-1.6000000000000000e+01 1.6000000000000000e+01
-1.6000000000000000e+01 1.6000000000000000e+01
ITEM: ATOMS id type x y z
1 1 7.77116 9.58171 -8.74834
2 1 8.66426 9.20182 -8.83488
3 1 9.16383 9.13935 -9.66715
4 1 9.8938 9.33271 -10.3287
5 1 10.4855 10.043 -10.6272
6 1 11.3566 10.2893 -10.7172
7 1 11.8508 10.6159 -9.93923
8 1 12.0981 11.1388 -10.6562
9 1 12.4943 11.1766 -11.5392
10 1 13.3518 11.4656 -11.347
11 1 13.9098 10.9834 -10.7817
12 1 14.8025 11.0342 -10.5425
13 1 15.0267 10.0609 -10.3756
14 1 14.7436 9.74467 -11.2251
15 1 13.9199 10.0757 -11.4821
16 1 13.3397 9.33621 -11.7012
17 1 12.4806 9.76926 -11.8318
18 1 11.6778 9.77634 -12.3659
19 1 11.4691 9.10231 -11.774
20 1 11.6989 8.24895 -11.4189
21 1 11.5338 7.99191 -12.3205
22 1 11.268 7.91865 -13.244
23 1 10.393 8.07745 -12.8697
24 1 9.84695 8.52748 -12.3231
25 1 9.19378 9.11424 -11.9495
26 1 8.58369 8.32959 -12.0916
27 1 8.06672 8.18287 -12.8386
28 1 7.2264 8.47426 -13.1448
29 1 6.38928 8.93168 -12.8293
30 1 5.72862 8.97214 -12.1627
31 1 5.37823 8.37093 -12.8165
32 1 5.2598 7.65724 -13.4263
ITEM: TIMESTEP
340000
ITEM: NUMBER OF ATOMS
32
ITEM: BOX BOUNDS mm mm mm
-1.6000000000000000e+01 1.6215057993247640e+01
-1.6000000000000000e+01 1.6000000000000000e+01
-2.0671316411601023e+01 1.6000000000000000e+01
ITEM: ATOMS id type x y z
1 1 14.6237 12.6188 -9.65212
2 1 14.6431 11.8707 -9.11727
3 1 14.912 11.1024 -8.70844
4 1 15.5207 10.9877 -9.47937
5 1 16.217 10.9127 -10.1573
6 1 15.6297 10.8187 -10.9063
7 1 14.9773 11.4156 -10.5593
8 1 14.6298 11.1797 -11.4471
9 1 15.0529 10.7038 -12.126
10 1 15.4184 9.88718 -11.8381
11 1 14.5463 9.77759 -11.3905
12 1 13.9117 10.4381 -11.4736
13 1 13.2567 10.3973 -12.2118
14 1 13.0983 10.3605 -13.105
15 1 13.0047 9.68553 -13.7833
16 1 12.7875 9.25473 -14.6325
17 1 13.1468 8.45488 -14.9955
18 1 13.7431 9.16665 -14.9123
19 1 14.2374 9.98136 -14.9417
20 1 15.188 9.76571 -14.9271
21 1 14.9446 10.0416 -15.8312
22 1 14.3879 9.74171 -16.521
23 1 15.1872 9.63371 -16.9168
24 1 14.9861 9.61893 -17.826
25 1 14.1416 9.23054 -17.4629
26 1 13.4758 9.48852 -18.027
27 1 12.935 8.7475 -18.205
28 1 13.2247 7.89119 -17.8658
29 1 12.5123 7.40613 -18.2407
30 1 12.347 6.87772 -19.0608
31 1 12.7644 6.99727 -19.8981
32 1 12.3342 6.51012 -20.6475
ITEM: TIMESTEP
350000
ITEM: NUMBER OF ATOMS
32
ITEM: BOX BOUNDS mm mm mm
-1.6000000000000000e+01 2.0533066510331725e+01
-1.6000000000000000e+01 1.6000000000000000e+01
-1.6000000000000000e+01 1.6000000000000000e+01
ITEM: ATOMS id type x y z
1 1 14.3332 13.3221 -12.0473
2 1 14.0259 13.961 -12.6582
3 1 14.5019 13.6157 -13.3634
4 1 15.1091 12.9673 -13.712
5 1 15.6129 12.2247 -13.4854
6 1 16.3546 12.2975 -14.0555
7 1 17.0501 11.8082 -14.4476
8 1 17.772 11.6941 -13.7907
9 1 18.4817 11.6452 -14.4764
10 1 19.0251 10.9382 -14.4174
11 1 19.1277 11.1119 -13.5072
12 1 19.2102 11.7061 -12.7909
13 1 20.0223 11.3599 -12.5324
14 1 20.7901 10.8864 -12.3833
15 1 20.3286 10.4 -11.6967
16 1 19.4098 10.3798 -12.0159
17 1 18.5992 10.6653 -12.3608
18 1 18.5067 9.83283 -11.8536
19 1 18.2427 8.86147 -11.8631
20 1 18.2129 8.91503 -10.9335
21 1 17.5578 8.88636 -10.3529
22 1 17.8519 8.22801 -9.79485
23 1 18.086 7.33501 -9.70015
24 1 18.748 7.38037 -9.04291
25 1 18.5815 7.9556 -8.27318
26 1 18.7709 7.726 -7.41663
27 1 18.2415 8.44622 -7.39801
28 1 17.694 9.26015 -7.3683
29 1 16.8202 9.30605 -7.76086
30 1 16.0825 9.6507 -8.17098
31 1 15.3597 9.39227 -7.6252
32 1 14.42 9.45197 -7.64924
ITEM: TIMESTEP
360000
ITEM: NUMBER OF ATOMS
32
ITEM: BOX BOUNDS mm mm mm
-1.6000000000000000e+01 1.9443672248971161e+01
-1.6000000000000000e+01 1.6216565411878815e+01
-1.6461382770388589e+01 1.6000000000000000e+01
ITEM: ATOMS id type x y z
1 1 18.9948 12.9301 -11.3709
2 1 19.0999 13.16 -12.3232
3 1 19.4839 12.8037 -13.0589
4 1 18.7324 12.1915 -13.1639
5 1 17.8689 11.8146 -12.9814
6 1 17.5329 12.5154 -13.5814
7 1 17.3887 12.5495 -14.5134
8 1 18.1282 12.9158 -14.9758
9 1 18.3368 12.6524 -15.8889
10 1 17.5326 12.1816 -15.8211
11 1 16.994 12.6767 -16.4998
12 1 16.4836 13.3668 -16.2467
13 1 15.9948 13.7722 -15.5374
14 1 15.0955 13.9927 -15.3102
15 1 14.7582 13.1309 -15.2502
16 1 14.3094 12.608 -14.601
17 1 13.9489 13.4785 -14.5851
18 1 13.1061 13.566 -14.2965
19 1 12.4302 14.1976 -14.065
20 1 12.5494 14.0164 -13.1725
21 1 12.0085 13.6287 -12.4844
22 1 12.1985 13.6091 -11.5458
23 1 12.4029 14.188 -10.7736
24 1 11.8906 15.0032 -11.0303
25 1 11.2167 15.6325 -10.7242
26 1 11.0655 14.8861 -10.1092
27 1 10.3385 15.4201 -10.0221
28 1 10.0216 16.2705 -9.76929
29 1 9.40939 15.7344 -9.26362
30 1 10.0157 15.1445 -8.88613
31 1 10.2892 14.5612 -8.24951
32 1 10.8902 13.8119 -8.07464
ITEM: TIMESTEP
370000
ITEM: NUMBER OF ATOMS
32
ITEM: BOX BOUNDS mm mm mm
-1.6000000000000000e+01 1.6000000000000000e+01
-1.6000000000000000e+01 1.6413902175830270e+01
-2.2182992668817498e+01 1.6000000000000000e+01
ITEM: ATOMS id type x y z
1 1 9.17612 7.05919 -20.7874
2 1 9.92088 6.72184 -21.1739
3 1 10.156 6.89989 -22.0533
4 1 9.59607 7.61173 -21.7818
5 1 9.19226 8.45443 -21.8974
6 1 9.27111 9.41862 -21.7624
7 1 9.70975 8.97298 -21.0471
8 1 9.67584 9.76078 -20.5101
9 1 10.248 9.85242 -19.7766
10 1 11.0592 10.1151 -19.4175
11 1 10.5402 10.8915 -19.3818
12 1 10.6671 11.4795 -18.6961
13 1 11.5129 11.246 -18.2682
14 1 12.0734 10.7701 -17.7162
15 1 12.7451 10.8079 -16.996
16 1 11.9666 11.198 -16.7383
17 1 11.3012 11.5633 -16.2872
18 1 10.79 11.3626 -15.4693
19 1 10.2053 11.8794 -14.898
20 1 10.7219 12.7265 -14.6625
21 1 11.3521 13.3377 -14.9751
22 1 11.3495 14.2255 -14.7518
23 1 10.5912 14.7704 -14.3934
24 1 10.0289 14.2587 -14.9929
25 1 10.0343 14.6014 -15.9238
26 1 9.32727 15.1615 -15.6365
27 1 8.4723 15.1448 -15.2495
28 1 8.03996 14.7314 -14.5156
29 1 8.88495 14.3256 -14.7519
30 1 9.15014 14.5363 -13.8486
31 1 9.51714 15.3409 -13.78
32 1 9.652 16.0956 -14.3307
ITEM: TIMESTEP
380000
ITEM: NUMBER OF ATOMS
32
ITEM: BOX BOUNDS mm mm mm
-1.6000000000000000e+01 1.6000000000000000e+01
-1.6000000000000000e+01 1.6339528430092962e+01
-2.4174607700889528e+01 1.6000000000000000e+01
ITEM: ATOMS id type x y z
1 1 10.4655 10.4497 -23.0672
2 1 10.065 9.6884 -23.4793
3 1 9.31625 9.95654 -24.0765
4 1 9.50473 10.8443 -24.1573
5 1 9.31572 11.6414 -23.7363
6 1 8.47335 11.6885 -23.3721
7 1 8.56126 11.6167 -22.3867
8 1 8.64582 11.2875 -21.4778
9 1 8.89749 11.2826 -20.5801
10 1 9.65061 10.916 -20.96
11 1 10.29 11.5036 -21.2956
12 1 11.0426 12.0263 -21.4065
13 1 10.8246 12.3076 -20.5237
14 1 11.3679 13.0505 -20.1322
15 1 10.8456 13.5617 -19.5342
16 1 10.1566 13.7696 -20.1182
17 1 9.62828 14.2611 -19.514
18 1 9.40202 15.1422 -19.5888
19 1 9.45524 15.4949 -18.6992
20 1 9.2487 14.5742 -18.4611
21 1 9.90119 14.2806 -17.7756
22 1 10.812 13.9391 -17.5615
23 1 11.2579 13.934 -16.7355
24 1 10.5869 14.5327 -16.3345
25 1 9.80284 14.4907 -15.7031
26 1 10.0477 14.2474 -14.8676
27 1 10.832 14.6459 -14.3487
28 1 11.7612 14.7717 -14.3583
29 1 12.6875 15.0316 -14.3259
30 1 13.3013 15.6857 -14.0704
31 1 13.7866 16.3328 -13.6203
32 1 14.3589 15.791 -14.1501
ITEM: TIMESTEP
390000
ITEM: NUMBER OF ATOMS
32
ITEM: BOX BOUNDS mm mm mm
-1.6000000000000000e+01 1.7109783444832495e+01
-1.6000000000000000e+01 1.6000000000000000e+01
-1.9716215128895470e+01 1.6000000000000000e+01
ITEM: ATOMS id type x y z
1 1 16.434 9.00711 -17.0786
2 1 16.3913 9.78369 -16.616
3 1 16.8546 10.4874 -17.0259
4 1 16.6268 10.9374 -16.252
5 1 17.2238 11.6796 -16.418
6 1 16.811 12.5413 -16.5792
7 1 16.611 12.9432 -15.7367
8 1 15.7831 13.0818 -15.2905
9 1 15.3516 12.3924 -15.7416
10 1 15.4403 11.5669 -15.3424
11 1 14.8258 11.3392 -16.0237
12 1 14.0213 11.6159 -16.2161
13 1 13.885 12.3918 -16.6942
14 1 13.0534 11.8956 -16.674
15 1 12.3113 12.0898 -16.0736
16 1 11.4818 11.9855 -15.6511
17 1 10.8975 12.2135 -14.9521
18 1 10.1143 12.7441 -15.3381
19 1 10.3151 13.198 -16.0754
20 1 9.38457 13.3077 -16.1034
21 1 9.38929 13.3944 -17.0644
22 1 9.39875 14.2377 -16.6678
23 1 8.89578 15.0431 -16.6345
24 1 9.37649 15.5075 -17.3039
25 1 9.32463 14.723 -17.81
26 1 8.97188 14.8204 -18.6191
27 1 9.19504 14.1261 -19.1137
28 1 8.95062 13.5587 -18.3833
29 1 9.11491 12.6919 -17.9804
30 1 9.59162 12.7184 -18.8075
31 1 9.67299 12.5086 -19.7189
32 1 10.5748 12.3867 -19.8579
ITEM: TIMESTEP
400000
ITEM: NUMBER OF ATOMS
32
ITEM: BOX BOUNDS mm mm mm
-1.6000000000000000e+01 1.9063960598670747e+01
-1.6000000000000000e+01 1.6000000000000000e+01
-1.6000000000000000e+01 1.6000000000000000e+01
ITEM: ATOMS id type x y z
1 1 18.6282 12.7815 -9.77293
2 1 19.061 12.1358 -10.288
3 1 18.4816 11.623 -10.8389
4 1 18.1403 10.748 -10.877
5 1 17.7286 10.2936 -10.1776
6 1 17.7534 11.186 -9.84418
7 1 16.9313 11.3466 -9.5377
8 1 16.179 11.1042 -10.0549
9 1 15.3434 11.5758 -9.89026
10 1 14.7258 11.0374 -10.2473
11 1 13.8427 11.1869 -10.3839
12 1 13.7869 11.4124 -11.356
13 1 14.0469 11.4031 -12.3379
14 1 13.207 10.9543 -12.2216
15 1 12.5732 10.1966 -12.0721
16 1 11.8707 10.745 -12.4504
17 1 11.4233 11.4456 -12.7164
18 1 11.3595 11.9953 -13.4905
19 1 10.5145 12.4106 -13.6724
20 1 10.2351 12.3353 -12.7884
21 1 10.5333 11.6453 -12.1707
22 1 9.8044 11.3477 -12.7966
23 1 9.26379 11.8102 -13.3922
24 1 9.00772 11.902 -14.2812
25 1 8.5274 11.6172 -15.0858
26 1 8.13015 11.0464 -14.4805
27 1 8.66559 10.3366 -14.1296
28 1 8.10558 9.65757 -13.8161
29 1 7.80552 9.15493 -13.1184
30 1 7.96257 8.2482 -13.3583
31 1 7.71234 7.43817 -12.9083
32 1 7.85921 6.5024 -13.0746
ITEM: TIMESTEP
410000
ITEM: NUMBER OF ATOMS
32
ITEM: BOX BOUNDS mm mm mm
-1.6000000000000000e+01 1.6000000000000000e+01
-1.6000000000000000e+01 2.0843117548887701e+01
-1.6000000000000000e+01 1.6000000000000000e+01
ITEM: ATOMS id type x y z
1 1 8.08391 20.4833 -14.5374
2 1 8.73795 20.6243 -15.1761
3 1 9.60908 20.3507 -15.1983
4 1 10.3639 19.7618 -15.1004
5 1 9.83401 19.3045 -15.6968
6 1 9.98452 18.3295 -15.5559
7 1 10.9165 18.1671 -15.6318
8 1 11.4514 18.0041 -14.8811
9 1 11.7647 17.3873 -14.272
10 1 11.4149 17.7752 -13.4218
11 1 10.6745 17.2692 -13.7077
12 1 10.658 16.3474 -13.7758
13 1 10.4044 15.5466 -13.3211
14 1 10.4634 14.6757 -13.573
15 1 10.2227 13.8305 -13.9319
16 1 10.0763 13.2896 -14.6622
17 1 9.39313 12.6923 -14.9156
18 1 8.47652 12.615 -14.9819
19 1 8.00202 13.342 -15.2836
20 1 7.76304 14.2027 -15.0351
21 1 7.20507 14.7455 -14.5426
22 1 6.87992 14.0657 -14.0038
23 1 6.25374 13.8646 -13.3957
24 1 7.02265 14.0996 -12.8534
25 1 7.51596 13.9577 -12.1088
26 1 7.70317 13.562 -11.2442
27 1 7.55482 12.9704 -10.4999
28 1 7.19245 12.9158 -9.60595
29 1 6.84455 12.1785 -10.0727
30 1 7.03084 11.4827 -10.6555
31 1 7.07435 10.6165 -10.1995
32 1 6.29357 10.7877 -9.6578
ITEM: TIMESTEP
420000
ITEM: NUMBER OF ATOMS
32
ITEM: BOX BOUNDS mm mm mm
-1.6000000000000000e+01 1.6000000000000000e+01
-1.6000000000000000e+01 1.6551432194510561e+01
-1.6000000000000000e+01 1.6000000000000000e+01
ITEM: ATOMS id type x y z
1 1 7.01439 15.3896 -6.19661
2 1 6.04953 15.2174 -6.21197
3 1 5.73927 16.0266 -5.81941
4 1 4.84091 16.2204 -5.67879
5 1 4.15094 16.232 -6.38153
6 1 3.86614 15.433 -6.85876
7 1 4.00727 15.7343 -7.78612
8 1 4.15211 15.3744 -8.63095
9 1 4.27223 16.189 -9.09053
10 1 4.96488 15.6154 -9.42253
11 1 5.81391 16.0101 -9.61479
12 1 6.7301 15.8031 -9.64487
13 1 7.38587 15.259 -9.94912
14 1 7.20963 14.924 -9.15559
15 1 7.02962 14.3798 -8.46412
16 1 6.69068 14.0236 -9.28278
17 1 6.40645 14.3577 -10.1571
18 1 5.75932 13.646 -10.1752
19 1 5.0278 14.0514 -10.6042
20 1 4.77092 14.3323 -11.4965
21 1 3.93559 14.0107 -11.3524
22 1 4.09825 13.1301 -11.5168
23 1 3.31481 12.5836 -11.3007
24 1 3.4668 11.6652 -11.2427
25 1 2.9865 10.8799 -11.311
26 1 3.57138 10.3284 -10.8392
27 1 4.08622 9.79368 -11.4883
28 1 3.93885 9.85337 -12.4118
29 1 3.91939 9.60166 -13.3059
30 1 4.19558 10.1428 -14.0813
31 1 4.66845 10.9645 -13.8611
32 1 4.12139 11.5222 -13.2725
ITEM: TIMESTEP
430000
ITEM: NUMBER OF ATOMS
32
ITEM: BOX BOUNDS mm mm mm
-1.6000000000000000e+01 1.6000000000000000e+01
-1.6000000000000000e+01 2.1894754089913906e+01
-1.6000000000000000e+01 1.6000000000000000e+01
ITEM: ATOMS id type x y z
1 1 9.93705 21.1842 -11.0331
2 1 10.7585 20.7838 -10.9168
3 1 10.3748 20.0504 -10.4771
4 1 10.7714 19.5531 -9.81105
5 1 11.6996 19.5149 -9.49686
6 1 11.5213 20.223 -8.9085
7 1 10.9025 19.8793 -8.29551
8 1 10.5136 20.7257 -8.09443
9 1 9.77829 21.311 -7.77213
10 1 9.34655 21.909 -7.13289
11 1 8.58576 21.6598 -7.62638
12 1 8.65556 20.8333 -7.20607
13 1 9.10442 20.0713 -6.81026
14 1 8.66264 19.3076 -6.50387
15 1 8.07341 18.682 -6.09757
16 1 7.55822 18.1386 -6.65792
17 1 8.06164 17.4982 -7.1198
18 1 7.61065 16.8458 -6.6526
19 1 6.84073 16.7745 -6.15508
20 1 6.37216 16.5854 -5.34711
21 1 7.10722 16.2958 -4.77675
22 1 7.57051 15.4057 -4.98991
23 1 7.59169 15.0011 -5.85048
24 1 7.48138 15.2641 -6.7736
25 1 8.08648 14.8955 -7.39745
26 1 8.78533 14.8267 -8.10324
27 1 8.84854 13.8799 -8.00446
28 1 8.5659 13.0578 -8.21622
29 1 7.81793 13.3841 -7.68912
30 1 7.05573 13.4391 -7.16864
31 1 6.66254 13.8678 -6.38218
32 1 6.38997 14.7256 -6.14642
ITEM: TIMESTEP
440000
ITEM: NUMBER OF ATOMS
32
ITEM: BOX BOUNDS mm mm mm
-1.6000000000000000e+01 1.6000000000000000e+01
-1.6000000000000000e+01 2.4640399190993264e+01
-1.6000000000000000e+01 1.6000000000000000e+01
ITEM: ATOMS id type x y z
1 1 9.14502 25.1112 -14.6378
2 1 9.90957 25.1031 -15.2082
3 1 10.7315 24.6583 -15.012
4 1 10.9418 24.5484 -14.1231
5 1 10.7355 23.6881 -13.7753
6 1 10.2399 22.853 -14.0088
7 1 10.4565 22.0675 -14.4671
8 1 9.63386 21.6694 -14.7156
9 1 8.79623 21.9274 -15.0492
10 1 9.03924 21.1874 -15.6592
11 1 8.64534 20.542 -15.1337
12 1 8.83297 20.6576 -14.182
13 1 9.35834 19.9147 -14.3295
14 1 9.83299 19.6265 -13.5627
15 1 10.0523 18.9891 -14.2184
16 1 10.7667 19.1243 -13.6379
17 1 11.0782 18.5691 -12.9168
18 1 11.1325 17.9824 -12.1738
19 1 11.7147 17.3221 -11.9899
20 1 12.1296 16.5485 -11.7031
21 1 11.3778 16.2139 -11.1812
22 1 10.6773 15.8073 -10.6196
23 1 10.5641 15.1061 -10.0323
24 1 9.67399 15.1482 -9.59192
25 1 8.83481 15.0512 -9.15974
26 1 8.65038 14.7801 -8.28723
27 1 9.03048 14.5951 -7.47931
28 1 8.67016 14.9462 -6.6935
29 1 7.92431 14.5988 -7.12436
30 1 7.43117 15.2605 -6.64344
31 1 7.84738 15.99 -6.19748
32 1 7.27936 16.0171 -5.47652
ITEM: TIMESTEP
450000
ITEM: NUMBER OF ATOMS
32
ITEM: BOX BOUNDS mm mm mm
-1.6000000000000000e+01 1.6000000000000000e+01
-1.6000000000000000e+01 2.4077966203449161e+01
-1.7304882644669526e+01 1.6000000000000000e+01
ITEM: ATOMS id type x y z
1 1 7.35271 22.1072 -17.1424
2 1 8.04006 22.6965 -17.0171
3 1 8.69851 22.1176 -17.2405
4 1 9.51408 21.6889 -17.0023
5 1 9.67714 21.599 -16.0981
6 1 10.5186 21.3934 -15.8659
7 1 11.4682 21.4799 -15.7556
8 1 11.0846 21.982 -14.9216
9 1 10.9762 21.5697 -14.135
10 1 11.2642 21.5235 -13.2276
11 1 12.1527 21.2004 -13.064
12 1 12.418 21.8812 -13.6573
13 1 13.1196 22.3058 -13.1585
14 1 13.5063 22.2591 -14.0431
15 1 13.3992 23.0377 -14.5487
16 1 12.6813 23.4104 -14.1046
17 1 11.9692 23.7845 -14.5445
18 1 11.0727 23.8549 -14.2207
19 1 11.1086 24.2821 -15.0142
20 1 11.3876 24.0927 -15.9039
21 1 10.8626 23.4096 -16.3611
22 1 10.6697 22.524 -16.3674
23 1 9.95286 22.8754 -16.815
24 1 9.19464 23.3671 -16.4744
25 1 8.84663 23.855 -15.6492
26 1 9.17264 23.3695 -14.8828
27 1 8.71136 22.872 -14.1697
28 1 7.98815 22.2632 -14.0964
29 1 7.38119 21.5399 -14.119
30 1 7.74332 20.6929 -14.0641
31 1 7.79561 20.1935 -13.2824
32 1 7.64066 20.2786 -12.3644
ITEM: TIMESTEP
460000
ITEM: NUMBER OF ATOMS
32
ITEM: BOX BOUNDS mm mm mm
-1.6000000000000000e+01 1.6000000000000000e+01
-1.6000000000000000e+01 2.4756863503123608e+01
-1.6974384528020007e+01 1.6000000000000000e+01
ITEM: ATOMS id type x y z
1 1 12.1737 21.1735 -14.2397
2 1 11.9337 21.3193 -15.1123
3 1 11.2383 21.2753 -15.7886
4 1 10.7029 21.6552 -15.1064
5 1 10.4436 22.2314 -14.3509
6 1 9.97063 22.2407 -13.5234
7 1 9.04079 22.0936 -13.4183
8 1 8.4018 22.8271 -13.5474
9 1 8.7397 22.6233 -14.4013
10 1 9.02732 22.1865 -15.2051
11 1 9.1778 22.8587 -15.8677
12 1 9.11956 22.3649 -16.6667
13 1 8.45656 22.7223 -17.2623
14 1 8.09632 23.5407 -16.9168
15 1 7.79528 24.4267 -16.8673
16 1 8.25052 24.8013 -16.1553
17 1 8.73586 24.205 -15.5811
18 1 7.99647 23.9801 -15.0518
19 1 7.20501 23.7108 -14.5852
20 1 6.4391 23.8325 -14.0825
21 1 6.56431 23.8718 -13.1697
22 1 6.99865 24.4995 -12.6834
23 1 6.83386 23.765 -12.0957
24 1 6.81767 23.5331 -11.2001
25 1 5.99493 23.0637 -10.9863
26 1 5.70117 22.1707 -10.882
27 1 5.94005 21.458 -11.3751
28 1 5.75529 20.6923 -11.9185
29 1 6.08526 20.7058 -12.8462
30 1 6.93901 21.0129 -12.6798
31 1 6.55521 21.8141 -12.4557
32 1 6.94208 22.6403 -12.5532
ITEM: TIMESTEP
470000
ITEM: NUMBER OF ATOMS
32
ITEM: BOX BOUNDS mm mm mm
-1.6000000000000000e+01 1.6000000000000000e+01
-1.6000000000000000e+01 2.5116267067341138e+01
-1.9422013055835826e+01 1.6000000000000000e+01
ITEM: ATOMS id type x y z
1 1 12.1503 24.4352 -19.3128
2 1 12.5261 25.1539 -18.9263
3 1 12.053 24.6445 -18.206
4 1 12.2519 23.7412 -18.0956
5 1 11.7493 23.0217 -18.3243
6 1 11.267 23.0705 -17.5141
7 1 11.3141 23.6437 -16.7751
8 1 10.4726 23.8264 -17.0183
9 1 10.0035 23.2423 -16.4814
10 1 10.2906 23.2501 -15.5979
11 1 9.82848 23.8488 -15.0092
12 1 8.938 23.4777 -15.0484
13 1 9.04936 22.6593 -14.5232
14 1 9.35312 22.0202 -13.9478
15 1 9.4077 22.7572 -13.3674
16 1 8.93461 22.6042 -12.5394
17 1 8.03118 22.3151 -12.4571
18 1 7.50351 22.8549 -13.0673
19 1 6.72209 23.3354 -13.3799
20 1 6.64285 23.0417 -12.5055
21 1 6.64138 22.205 -12.9608
22 1 6.26972 21.5148 -12.3163
23 1 5.81393 20.6867 -12.2281
24 1 5.09546 20.1495 -11.9679
25 1 4.69887 19.8548 -11.1441
26 1 4.25772 20.684 -11.0307
27 1 4.44205 21.6037 -11.1066
28 1 4.92681 21.8768 -10.3696
29 1 5.00515 22.6154 -9.74646
30 1 5.03017 23.3546 -9.17174
31 1 4.58858 24.1055 -8.90338
32 1 4.02087 24.0226 -8.16936
ITEM: TIMESTEP
480000
ITEM: NUMBER OF ATOMS
32
ITEM: BOX BOUNDS mm mm mm
-1.6000000000000000e+01 1.6000000000000000e+01
-1.6000000000000000e+01 2.5403146280619140e+01
-2.1264807717568367e+01 1.6000000000000000e+01
ITEM: ATOMS id type x y z
1 1 2.12408 25.5748 -18.4867
2 1 1.49885 25.2815 -19.11
3 1 2.00069 24.5273 -18.9469
4 1 2.42442 24.1584 -19.6999
5 1 2.05155 23.7831 -20.4737
6 1 2.70498 23.5742 -21.157
7 1 3.69859 23.5837 -21.2214
8 1 4.44351 23.1355 -20.8143
9 1 4.39124 22.6258 -20.0587
10 1 3.69982 22.3182 -19.399
11 1 3.36613 22.1689 -18.5
12 1 3.07222 22.2585 -17.6502
13 1 3.15809 22.3908 -16.6888
14 1 3.92667 22.3203 -16.0358
15 1 4.7582 22.3358 -15.6833
16 1 4.30589 22.7 -14.927
17 1 4.38738 22.1676 -14.1677
18 1 4.68684 21.714 -13.4212
19 1 5.07242 21.4992 -12.5535
20 1 5.90789 21.3682 -12.0376
21 1 6.32612 20.683 -11.4923
22 1 7.08064 20.4954 -12.1189
23 1 7.35735 19.6945 -11.7668
24 1 7.64586 19.0691 -11.1179
25 1 8.60115 19.0489 -10.9014
26 1 9.4733 18.7959 -10.7054
27 1 10.3123 18.9411 -10.3548
28 1 10.4813 19.6377 -10.9666
29 1 9.98802 20.42 -10.8505
30 1 10.6773 20.6684 -11.4621
31 1 11.3766 21.0939 -10.9413
32 1 11.9823 21.2433 -11.66
ITEM: TIMESTEP
490000
ITEM: NUMBER OF ATOMS
32
ITEM: BOX BOUNDS mm mm mm
-1.6000000000000000e+01 1.6000000000000000e+01
-1.6000000000000000e+01 2.6292830998714930e+01
-1.8910509708830759e+01 1.6000000000000000e+01
ITEM: ATOMS id type x y z
1 1 3.69325 25.4634 -19.2224
2 1 3.35128 25.2063 -18.4075
3 1 3.79014 25.8922 -17.9995
4 1 4.63649 26.24 -18.0633
5 1 5.34304 25.6193 -17.9549
6 1 6.11736 25.5194 -17.4298
7 1 5.67168 25.2035 -16.6201
8 1 5.68175 24.7776 -15.8138
9 1 5.90283 23.948 -16.3793
10 1 5.08297 23.7651 -16.8036
11 1 4.65696 22.9826 -16.4332
12 1 4.13807 22.3644 -16.0259
13 1 3.65712 22.5281 -16.8127
14 1 3.06134 21.8388 -16.5895
15 1 2.4544 22.2234 -17.1684
16 1 1.83578 21.8805 -16.4722
17 1 1.03297 21.3429 -16.0917
18 1 1.16163 21.2859 -15.156
19 1 1.22735 20.7733 -14.3823
20 1 0.825101 19.924 -14.597
21 1 0.741255 19.055 -14.9536
22 1 0.762163 18.7043 -14.1195
23 1 1.09619 17.9563 -13.6747
24 1 1.24692 18.6228 -13.0826
25 1 0.337939 18.7523 -12.9428
26 1 -0.0527484 18.2048 -12.2977
27 1 -0.36581 17.5412 -11.6619
28 1 -0.610341 16.5861 -11.6758
29 1 -0.494022 15.7445 -12.0729
30 1 -0.927724 15.254 -12.7446
31 1 -0.560001 15.852 -13.3267
32 1 -1.2123 16.4204 -13.7281
ITEM: TIMESTEP
500000
ITEM: NUMBER OF ATOMS
32
ITEM: BOX BOUNDS mm mm mm
-1.6000000000000000e+01 1.6000000000000000e+01
-1.6000000000000000e+01 2.4592570406713421e+01
-2.0698399067519372e+01 1.6000000000000000e+01
ITEM: ATOMS id type x y z
1 1 0.330772 23.474 -20.2129
2 1 0.481944 24.1756 -19.5588
3 1 0.958666 24.325 -20.3165
4 1 1.66729 23.7215 -20.1033
5 1 2.17897 23.2806 -20.7933
6 1 2.71035 22.5384 -20.6574
7 1 3.26964 21.8299 -20.573
8 1 3.97693 21.7843 -19.9634
9 1 4.21897 22.2633 -19.1304
10 1 3.84597 21.7974 -18.4576
11 1 4.68777 22.0005 -17.9617
12 1 4.67022 21.6529 -17.0788
13 1 4.84974 20.7301 -16.8958
14 1 5.47441 20.1747 -16.5207
15 1 5.11788 20.1773 -15.6288
16 1 5.298 19.6533 -14.8319
17 1 4.97895 19.6933 -13.8844
18 1 4.10082 19.7943 -13.8017
19 1 3.67497 19.963 -14.6425
20 1 3.36021 19.1573 -15.0385
21 1 3.0001 18.3268 -14.9956
22 1 3.7912 18.194 -14.5131
23 1 4.18926 17.4919 -14.0501
24 1 3.50085 17.0015 -13.5637
25 1 2.97689 16.2644 -13.4003
26 1 2.50386 15.6236 -13.9045
27 1 3.2421 15.0535 -13.9498
28 1 3.31955 15.0532 -13.0039
29 1 3.59246 14.9891 -12.1427
30 1 2.79353 14.6796 -11.6449
31 1 1.97432 15.104 -11.7837
32 1 2.53577 15.7682 -12.1495
ITEM: TIMESTEP
510000
ITEM: NUMBER OF ATOMS
32
ITEM: BOX BOUNDS mm mm mm
-1.6000000000000000e+01 1.6000000000000000e+01
-1.6000000000000000e+01 2.5038280086991843e+01
-2.0463432697288589e+01 1.6000000000000000e+01
ITEM: ATOMS id type x y z
1 1 0.836792 24.1539 -20.4058
2 1 1.4616 24.8319 -20.4944
3 1 2.1499 24.3531 -20.0534
4 1 1.65393 23.9474 -19.3777
5 1 2.14649 24.4462 -18.7436
6 1 2.52446 24.6181 -17.895
7 1 1.60539 24.6744 -17.7006
8 1 0.908579 24.2288 -17.2603
9 1 1.70498 23.7456 -17.08
10 1 2.51654 23.2493 -16.861
11 1 2.43219 22.6643 -16.1949
12 1 1.64339 22.3191 -16.4093
13 1 1.17132 21.6296 -16.0812
14 1 1.10806 20.7481 -15.8134
15 1 1.4602 20.6697 -14.8959
16 1 1.38882 20.2652 -14.0226
17 1 2.29694 20.1199 -14.4177
18 1 3.12725 20.3581 -14.5748
19 1 3.13079 19.5663 -15.1062
20 1 3.05692 18.7043 -15.3739
21 1 3.64534 18.2318 -16.0025
22 1 3.85358 17.371 -15.7042
23 1 3.67764 17.8144 -14.8718
24 1 4.47589 18.1959 -14.5924
25 1 5.37149 18.2328 -14.8778
26 1 5.81767 17.6086 -14.275
27 1 5.95707 16.6639 -14.0259
28 1 6.53166 16.25 -14.6206
29 1 6.01041 15.754 -15.2579
30 1 6.4443 14.9 -15.3543
31 1 6.2954 14.0463 -15.0519
32 1 7.14012 14.0915 -14.6703
ITEM: TIMESTEP
520000
ITEM: NUMBER OF ATOMS
32
ITEM: BOX BOUNDS mm mm mm
-1.6000000000000000e+01 1.6000000000000000e+01
-1.6000000000000000e+01 2.2448264141839498e+01
-1.7308587205446422e+01 1.6000000000000000e+01
ITEM: ATOMS id type x y z
1 1 9.88097 20.4332 -14.4342
2 1 9.84443 19.8131 -13.683
3 1 9.32901 20.4598 -13.2138
4 1 8.81838 19.869 -12.6767
5 1 8.93302 18.9241 -12.4256
6 1 8.07577 19.0357 -12.7518
7 1 8.21304 19.0725 -13.6542
8 1 7.57067 19.6055 -13.9989
9 1 7.55867 19.1497 -14.8425
10 1 7.83617 19.3779 -15.6707
11 1 7.33635 19.6067 -16.4042
12 1 7.1001 19.3028 -17.2941
13 1 6.30876 19.8244 -17.0987
14 1 5.3595 19.7334 -17.3103
15 1 4.99956 20.3946 -16.7879
16 1 4.68602 21.1944 -16.375
17 1 4.00389 21.7887 -16.3113
18 1 3.57473 22.4493 -16.892
19 1 3.23157 22.3895 -16.0099
20 1 2.62192 21.8983 -16.5017
21 1 1.68933 21.6037 -16.755
22 1 1.13889 21.215 -16.1045
23 1 0.328464 20.9398 -15.7066
24 1 -0.479291 20.5689 -16.0188
25 1 -1.28255 20.1084 -16.2173
26 1 -1.78654 19.5466 -15.5974
27 1 -1.90254 19.2515 -14.7083
28 1 -2.46829 18.506 -14.5693
29 1 -2.57277 18.6523 -15.4903
30 1 -3.1728 18.0172 -15.8104
31 1 -2.58242 17.4776 -16.2454
32 1 -2.65185 16.633 -16.5947
ITEM: TIMESTEP
530000
ITEM: NUMBER OF ATOMS
32
ITEM: BOX BOUNDS mm mm mm
-1.6000000000000000e+01 1.6000000000000000e+01
-1.6000000000000000e+01 2.5887027378984829e+01
-1.6000000000000000e+01 1.6000000000000000e+01
ITEM: ATOMS id type x y z
1 1 2.89746 26.5096 -12.7325
2 1 2.51384 25.6029 -13.0459
3 1 2.66622 25.3127 -12.1375
4 1 2.5967 24.418 -12.3659
5 1 2.67872 23.8892 -11.5435
6 1 3.12086 23.3842 -12.2076
7 1 2.78905 22.6534 -12.7036
8 1 2.40177 22.4009 -13.5468
9 1 2.11164 21.8737 -12.8262
10 1 2.90043 21.3452 -12.9632
11 1 3.00583 20.4817 -12.563
12 1 3.18603 20.7282 -11.6801
13 1 2.41024 20.4736 -11.1939
14 1 2.57017 21.3148 -10.7951
15 1 3.0856 20.6281 -10.4336
16 1 2.64381 19.8579 -10.0961
17 1 2.05439 20.3985 -9.6423
18 1 2.62333 20.2876 -8.90684
19 1 2.41114 19.7793 -8.17101
20 1 1.63838 19.1456 -8.30733
21 1 1.29613 18.261 -8.47386
22 1 0.51032 18.2734 -8.94441
23 1 0.20313 18.5782 -9.74924
24 1 -0.585816 18.1272 -9.74612
25 1 -0.616713 18.7917 -9.14869
26 1 -1.18384 19.5299 -9.1909
27 1 -1.74275 19.8652 -9.89908
28 1 -2.69393 19.8486 -9.86758
29 1 -2.3721 19.4606 -9.07644
30 1 -1.94036 20.0933 -8.56209
31 1 -1.42924 19.5689 -7.94278
32 1 -1.34636 19.2182 -7.1106
ITEM: TIMESTEP
540000
ITEM: NUMBER OF ATOMS
32
ITEM: BOX BOUNDS mm mm mm
-1.6000000000000000e+01 1.6000000000000000e+01
-1.6000000000000000e+01 2.2525322722893929e+01
-1.6000000000000000e+01 1.6000000000000000e+01
ITEM: ATOMS id type x y z
1 1 4.21521 19.8753 -13.7959
2 1 4.14562 20.0581 -14.7473
3 1 3.32763 20.5225 -14.7268
4 1 2.54118 20.0656 -14.4268
5 1 1.80567 20.2275 -13.7952
6 1 1.73687 20.7825 -14.5409
7 1 0.972238 20.8527 -14.0371