ITEM: TIMESTEP
30000
ITEM: NUMBER OF ATOMS
32
ITEM: BOX BOUNDS mm mm mm
-1.6000000000000000e+01 1.6000000000000000e+01
-1.6000000000000000e+01 1.6000000000000000e+01
-1.6000000000000000e+01 1.6000000000000000e+01
ITEM: ATOMS id type x y z
1 1 11.302 -7.20342 3.97655
2 1 11.3411 -6.84774 4.81771
3 1 10.4425 -6.54547 4.79261
4 1 10.1097 -7.13118 4.13491
5 1 10.0716 -7.86351 4.68907
6 1 9.40504 -7.74505 5.35304
7 1 8.43901 -7.71656 5.34596
8 1 7.75085 -7.66872 5.94412
9 1 7.30539 -6.97498 6.46486
10 1 6.6972 -6.67392 7.12577
11 1 5.9649 -6.08578 6.81168
12 1 5.43925 -6.25948 6.10659
13 1 5.16626 -6.40646 5.16332
14 1 5.93681 -6.3957 4.62181
15 1 6.58262 -5.80473 4.90068
16 1 7.19479 -6.13741 4.25058
17 1 8.07823 -6.26372 3.849
18 1 7.66286 -6.23347 3.02333
19 1 6.85047 -6.52859 2.67074
20 1 6.52019 -6.50596 1.82678
21 1 6.21421 -5.65826 1.94561
22 1 6.27895 -5.15486 2.71108
23 1 6.60966 -4.24912 2.79788
24 1 7.29858 -4.7351 2.52298
25 1 7.88433 -5.11289 1.89529
26 1 8.47276 -5.33463 1.13321
27 1 7.69483 -5.00163 0.730359
28 1 7.67132 -4.95957 -0.22714
29 1 8.34454 -4.58241 -0.805983
30 1 8.3652 -5.54228 -1.1271
31 1 8.8334 -5.68938 -0.317296
32 1 9.474 -6.01263 0.284507
ITEM: TIMESTEP
40000
ITEM: NUMBER OF ATOMS
32
ITEM: BOX BOUNDS mm mm mm
-1.6000000000000000e+01 1.6000000000000000e+01
-1.6000000000000000e+01 1.6000000000000000e+01
-1.6000000000000000e+01 1.6000000000000000e+01
ITEM: ATOMS id type x y z
1 1 5.5694 -0.0560501 5.124
2 1 6.3473 -0.563679 5.28137
3 1 6.03876 -0.81189 4.39525
4 1 5.24326 -0.597951 3.84763
5 1 4.43722 -1.06222 4.10783
6 1 3.78352 -1.66395 4.18005
7 1 3.20534 -1.24674 3.57711
8 1 2.98236 -1.16612 2.6622
9 1 2.92041 -1.92216 2.12263
10 1 2.94626 -1.82635 1.19641
11 1 3.18486 -2.77637 1.18407
12 1 4.02413 -2.33996 1.29423
13 1 4.94829 -2.28139 1.16887
14 1 4.94629 -2.69861 2.04754
15 1 4.40074 -1.96733 2.26542
16 1 4.52248 -1.19292 1.80534
17 1 3.92129 -0.69135 2.31571
18 1 4.36199 0.145312 2.29117
19 1 4.55651 0.954739 1.80211
20 1 4.90173 1.34479 1.06665
21 1 5.55665 1.97569 0.611826
22 1 6.05023 1.50051 -0.0498331
23 1 5.49204 1.98498 -0.642444
24 1 5.41712 1.1615 -1.09696
25 1 4.49036 1.37557 -1.30864
26 1 4.569 0.567267 -0.876624
27 1 4.71673 0.228207 -1.73872
28 1 5.48233 0.22854 -2.22539
29 1 5.71575 -0.669543 -2.33943
30 1 6.55501 -0.30117 -2.50014
31 1 6.58822 -0.592341 -3.42176
32 1 6.66099 -0.0267011 -4.19659
ITEM: TIMESTEP
50000
ITEM: NUMBER OF ATOMS
32
ITEM: BOX BOUNDS mm mm mm
-1.6000000000000000e+01 1.6000000000000000e+01
-1.6000000000000000e+01 1.6000000000000000e+01
-1.6000000000000000e+01 1.6000000000000000e+01
ITEM: ATOMS id type x y z
1 1 6.86686 -1.59224 4.68023
2 1 6.69548 -0.822986 5.20157
3 1 6.23296 -0.0392903 5.01994
4 1 5.3532 -0.47162 4.86218
5 1 4.72155 -1.10802 4.60485
6 1 4.90838 -0.879804 3.72361
7 1 4.94355 -0.546895 2.84641
8 1 4.49557 -0.367117 1.9905
9 1 4.33312 -0.475387 1.07104
10 1 5.23324 -0.360407 0.995912
11 1 5.25098 0.181876 0.230265
12 1 5.20111 1.03516 -0.245109
13 1 4.77589 0.342863 -0.680382
14 1 4.92886 -0.571044 -0.677118
15 1 4.62994 -1.2346 -1.3151
16 1 4.79188 -1.38453 -2.2094
17 1 4.51212 -1.63374 -3.04524
18 1 3.79643 -1.74743 -2.43196
19 1 3.18174 -2.35976 -1.96873
20 1 2.33808 -1.88353 -1.92759
21 1 1.78075 -1.64503 -2.62311
22 1 1.00217 -2.19538 -2.93967
23 1 0.705093 -2.61 -3.71457
24 1 0.385621 -3.35916 -4.04598
25 1 -0.525223 -3.56242 -4.04596
26 1 -0.829561 -4.21925 -4.65153
27 1 -1.7439 -4.42229 -4.59075
28 1 -2.53072 -4.79224 -4.19382
29 1 -2.73258 -4.57059 -3.29668
30 1 -3.2351 -4.05089 -3.85396
31 1 -3.82832 -4.65054 -3.37174
32 1 -3.6965 -5.51348 -3.70531
ITEM: TIMESTEP
60000
ITEM: NUMBER OF ATOMS
32
ITEM: BOX BOUNDS mm mm mm
-1.6000000000000000e+01 1.6000000000000000e+01
-1.6000000000000000e+01 1.6000000000000000e+01
-1.6000000000000000e+01 1.6000000000000000e+01
ITEM: ATOMS id type x y z
1 1 6.29803 1.57272 -2.47681
2 1 6.46636 0.761139 -2.83475
3 1 5.61856 0.484883 -2.57224
4 1 4.79763 0.0518566 -2.89643
5 1 3.91875 -0.264354 -2.74117
6 1 3.06566 -0.0333188 -2.51153
7 1 2.72312 0.170723 -3.41732
8 1 2.82288 0.844089 -4.08419
9 1 2.63055 0.158309 -4.69561
10 1 2.09117 -0.658023 -4.75507
11 1 1.79412 -0.595392 -5.61014
12 1 1.16729 -1.24309 -5.7873
13 1 0.617203 -1.36642 -6.48616
14 1 0.923898 -0.588977 -6.91205
15 1 1.712 -1.00258 -6.81501
16 1 1.87228 -0.743196 -7.71823
17 1 2.68211 -1.2521 -7.78334
18 1 2.5236 -2.17972 -7.95389
19 1 2.78823 -3.04764 -8.0162
20 1 2.89089 -2.68973 -8.91473
21 1 3.8179 -2.27387 -8.94802
22 1 3.95471 -2.33838 -8.05316
23 1 4.64639 -1.85984 -7.5962
24 1 4.06293 -1.25195 -8.01683
25 1 4.49763 -0.393852 -7.91106
26 1 5.09989 -0.802483 -7.37653
27 1 5.11578 0.153937 -7.18645
28 1 4.46133 0.728879 -7.49633
29 1 4.25016 0.794414 -8.37696
30 1 4.09383 0.519928 -9.24925
31 1 4.28262 1.30781 -9.78545
32 1 5.09225 1.46751 -9.37729
ITEM: TIMESTEP
70000
ITEM: NUMBER OF ATOMS
32
ITEM: BOX BOUNDS mm mm mm
-1.6000000000000000e+01 1.6000000000000000e+01
-1.6000000000000000e+01 1.6000000000000000e+01
-1.6000000000000000e+01 1.6000000000000000e+01
ITEM: ATOMS id type x y z
1 1 4.97964 -5.64746 -8.07676
2 1 4.14214 -5.1757 -8.45706
3 1 4.93031 -4.81075 -8.90986
4 1 5.39792 -4.02665 -8.76275
5 1 5.40845 -3.49254 -9.59655
6 1 4.99211 -2.96433 -8.98
7 1 4.73622 -2.22204 -8.40892
8 1 3.98821 -1.83308 -7.97347
9 1 3.99325 -1.29893 -8.75
10 1 4.3226 -0.359701 -8.82069
11 1 3.54451 0.133646 -8.69357
12 1 3.18033 -0.384709 -7.99914
13 1 2.84786 0.358051 -7.53159
14 1 2.9065 -0.483144 -7.06611
15 1 2.73879 -1.2789 -6.61451
16 1 2.25172 -0.705663 -6.05095
17 1 1.41158 -0.259169 -5.67229
18 1 1.48635 -0.164986 -6.60803
19 1 0.86123 -0.141439 -7.27622
20 1 0.645257 0.0717322 -8.19349
21 1 1.48253 -0.40363 -8.11086
22 1 0.941794 -1.14961 -7.9406
23 1 0.00127852 -1.43022 -7.68831
24 1 -0.513181 -1.57532 -8.55406
25 1 -0.752063 -0.703291 -8.13973
26 1 -1.26527 -0.697139 -7.35509
27 1 -0.833486 -0.0137886 -6.88043
28 1 -0.360469 -0.597289 -6.31487
29 1 0.210146 -1.26205 -6.04675
30 1 0.146807 -0.533488 -5.37694
31 1 0.292119 0.14774 -4.7198
32 1 1.01857 0.666133 -4.87365
ITEM: TIMESTEP
80000
ITEM: NUMBER OF ATOMS
32
ITEM: BOX BOUNDS mm mm mm
-1.6000000000000000e+01 1.6000000000000000e+01
-1.6000000000000000e+01 1.6000000000000000e+01
-1.6000000000000000e+01 1.6000000000000000e+01
ITEM: ATOMS id type x y z
1 1 -0.0964979 -3.98927 -12.5323
2 1 -0.293596 -4.05384 -13.4571
3 1 0.210344 -3.31237 -13.683
4 1 0.415676 -2.70731 -12.9656
5 1 0.675539 -2.29188 -13.7281
6 1 1.00979 -1.43666 -14.0758
7 1 1.95475 -1.593 -13.8228
8 1 2.8305 -1.73812 -14.0618
9 1 3.17889 -1.32906 -13.2875
10 1 3.75377 -0.62325 -13.1625
11 1 4.59656 -0.83218 -13.4454
12 1 5.23106 -0.419042 -14.0313
13 1 5.81839 -1.0565 -14.3701
14 1 6.78557 -1.16065 -14.252
15 1 7.5104 -1.57152 -14.7039
16 1 7.81744 -2.19288 -14.0459
17 1 8.17055 -1.3104 -13.8807
18 1 8.86665 -0.649277 -13.7776
19 1 9.22284 -0.479039 -12.9125
20 1 9.47771 -0.244465 -12.0485
21 1 9.07199 0.00972929 -11.2721
22 1 8.39272 -0.0146753 -10.5741
23 1 7.65299 0.0918004 -10.0418
24 1 7.58269 0.763208 -9.46326
25 1 7.96798 1.40673 -10.0058
26 1 8.60089 2.00533 -10.4271
27 1 8.87093 2.72154 -11.0719
28 1 9.77645 3.03159 -11.2152
29 1 9.95475 3.81341 -10.6965
30 1 9.42288 4.27526 -10.0278
31 1 9.70862 4.42456 -9.10477
32 1 8.79662 4.66113 -8.95936
ITEM: TIMESTEP
90000
ITEM: NUMBER OF ATOMS
32
ITEM: BOX BOUNDS mm mm mm
-1.6000000000000000e+01 1.6000000000000000e+01
-1.6000000000000000e+01 1.6000000000000000e+01
-1.7865347010927962e+01 1.6000000000000000e+01
ITEM: ATOMS id type x y z
1 1 4.55607 1.24165 -16.9661
2 1 5.20154 0.597686 -17.2821
3 1 5.93661 1.08138 -17.4691
4 1 6.12531 1.85426 -18.0147
5 1 5.40435 2.33159 -17.586
6 1 4.478 2.10177 -17.6935
7 1 4.2722 2.58494 -16.8236
8 1 4.06407 3.20243 -16.0774
9 1 3.7454 3.94734 -15.6292
10 1 4.38256 4.65931 -15.5756
11 1 4.55776 4.95933 -14.6997
12 1 5.36973 5.34907 -15.0031
13 1 5.91602 4.91762 -14.3525
14 1 6.24683 4.18256 -13.9587
15 1 6.494 3.94773 -13.0863
16 1 6.39215 3.56141 -12.26
17 1 6.10609 3.39911 -11.4269
18 1 5.19285 3.57344 -11.251
19 1 5.63409 4.061 -10.6059
20 1 5.63801 4.91057 -11.0376
21 1 5.88205 5.14407 -10.1765
22 1 6.78843 5.33526 -10.0737
23 1 7.7535 5.38118 -10.074
24 1 7.73582 4.4759 -9.81006
25 1 8.20299 4.60722 -10.6242
26 1 8.76839 3.96858 -10.1877
27 1 9.0991 3.7428 -9.32755
28 1 9.81948 3.29306 -8.87253
29 1 10.675 3.3135 -9.27141
30 1 11.2372 3.75944 -8.64248
31 1 11.8069 4.39262 -8.17881
32 1 11.9529 4.99969 -7.43144
ITEM: TIMESTEP
100000
ITEM: NUMBER OF ATOMS
32
ITEM: BOX BOUNDS mm mm mm
-1.6000000000000000e+01 1.6000000000000000e+01
-1.6000000000000000e+01 1.6000000000000000e+01
-1.8026929727950108e+01 1.6000000000000000e+01
ITEM: ATOMS id type x y z
1 1 -1.00814 5.30975 -17.5155
2 1 -1.70897 5.35227 -18.0548
3 1 -2.11656 4.53411 -17.7608
4 1 -2.68571 4.04409 -17.2023
5 1 -1.78128 4.0292 -16.849
6 1 -1.00739 3.70072 -17.2951
7 1 -0.85019 3.333 -16.4287
8 1 -0.212827 3.18781 -17.0987
9 1 0.409763 2.81858 -17.7362
10 1 0.494241 1.99199 -17.2301
11 1 1.29479 2.39278 -16.8963
12 1 1.4008 2.00153 -16.016
13 1 1.71052 1.08799 -16.1829
14 1 2.22085 1.48325 -16.8808
15 1 3.11235 1.75869 -16.7748
16 1 4.00265 1.54173 -17.0047
17 1 4.58275 1.8838 -16.2818
18 1 5.13025 1.87256 -17.0159
19 1 5.31047 1.46794 -17.8192
20 1 5.58064 0.613699 -17.5702
21 1 6.382 0.093144 -17.4556
22 1 6.9628 -0.177713 -16.7223
23 1 6.13609 -0.432918 -16.3347
24 1 6.7456 -0.663045 -15.608
25 1 6.75737 -1.1001 -14.7733
26 1 6.44903 -0.336345 -14.3355
27 1 5.7261 -0.124684 -14.942
28 1 5.14356 -0.807085 -15.1164
29 1 4.45565 -0.376253 -15.5521
30 1 4.71835 0.472667 -15.9628
31 1 5.38515 1.01163 -15.5089
32 1 5.60055 1.91172 -15.2385
ITEM: TIMESTEP
110000
ITEM: NUMBER OF ATOMS
32
ITEM: BOX BOUNDS mm mm mm
-1.6000000000000000e+01 1.6000000000000000e+01
-1.6000000000000000e+01 1.6000000000000000e+01
-1.8806660206383171e+01 1.6000000000000000e+01
ITEM: ATOMS id type x y z
1 1 0.588857 0.749971 -18.8035
2 1 -0.121429 1.06812 -18.2861
3 1 -0.715536 1.72633 -18.5822
4 1 -1.21772 1.82075 -17.7402
5 1 -1.21647 1.33625 -16.9422
6 1 -1.98022 0.768906 -17.0274
7 1 -2.86362 0.536718 -16.904
8 1 -3.3706 0.844801 -16.1775
9 1 -3.33965 1.25856 -15.3001
10 1 -3.65625 2.00339 -14.7001
11 1 -2.79986 2.32734 -14.988
12 1 -3.20926 2.18466 -15.8043
13 1 -2.6518 2.92645 -15.7822
14 1 -1.8918 3.50058 -15.9278
15 1 -0.986155 3.8394 -15.8227
16 1 -0.733744 3.21839 -15.1256
17 1 -0.262743 2.40512 -15.0694
18 1 0.382449 2.77053 -14.5158
19 1 1.20557 3.31116 -14.3792
20 1 1.93227 3.20806 -14.9295
21 1 2.58997 3.85755 -15.1966
22 1 3.28274 4.49765 -15.371
23 1 2.56297 5.00588 -15.8415
24 1 2.09397 5.61577 -16.3973
25 1 2.47091 6.37835 -15.9801
26 1 3.0481 6.4838 -16.728
27 1 3.37621 6.07329 -17.4863
28 1 2.86094 5.3766 -17.9393
29 1 3.68208 4.9063 -17.6334
30 1 4.38295 4.67148 -17.0504
31 1 4.81 4.05145 -16.4295
32 1 5.60379 4.45083 -16.0367
ITEM: TIMESTEP
120000
ITEM: NUMBER OF ATOMS
32
ITEM: BOX BOUNDS mm mm mm
-1.6000000000000000e+01 1.6000000000000000e+01
-1.6000000000000000e+01 1.6000000000000000e+01
-2.2546309413261145e+01 1.6000000000000000e+01
ITEM: ATOMS id type x y z
1 1 -3.96968 3.38199 -17.9884
2 1 -3.38222 2.89384 -18.5563
3 1 -3.13473 3.79 -18.559
4 1 -2.77399 4.4383 -17.9963
5 1 -2.35738 5.2704 -17.8623
6 1 -2.94423 5.38362 -17.0983
7 1 -2.43312 6.07378 -16.7708
8 1 -1.96548 6.58508 -16.1259
9 1 -1.06562 6.86359 -16.159
10 1 -0.617448 7.71027 -16.2953
11 1 -0.654225 7.41288 -15.3636
12 1 0.0334775 8.08503 -15.2077
13 1 0.452722 7.67805 -14.5158
14 1 1.28573 7.41213 -14.9413
15 1 2.0805 7.04618 -15.3103
16 1 2.29686 7.51856 -16.1046
17 1 2.41128 7.55179 -17.0576
18 1 2.09622 7.16648 -17.8186
19 1 2.54411 7.31878 -18.6307
20 1 2.43607 7.412 -19.5321
21 1 1.84758 7.83625 -20.0987
22 1 1.85554 7.34734 -20.9259
23 1 1.36833 7.79169 -21.6222
24 1 1.75427 8.50248 -22.0453
25 1 2.13306 9.10902 -22.6237
26 1 2.49147 9.85411 -22.089
27 1 2.54811 9.25364 -21.371
28 1 3.46869 9.17368 -21.3212
29 1 3.2708 9.83425 -20.6588
30 1 3.22107 10.737 -20.9132
31 1 3.48744 11.403 -21.5338
32 1 3.72582 11.932 -20.7593
ITEM: TIMESTEP
130000
ITEM: NUMBER OF ATOMS
32
ITEM: BOX BOUNDS mm mm mm
-1.6000000000000000e+01 1.6000000000000000e+01
-1.6000000000000000e+01 1.6000000000000000e+01
-1.8615194741391058e+01 1.6000000000000000e+01
ITEM: ATOMS id type x y z
1 1 -0.506605 13.0801 -10.8579
2 1 -0.0451305 12.4013 -10.3476
3 1 0.284126 11.5062 -10.1083
4 1 0.492847 10.5916 -9.96006
5 1 1.29677 10.1822 -10.2904
6 1 0.740122 9.52688 -10.0054
7 1 -0.1433 9.37014 -10.2558
8 1 -0.803859 10.0701 -10.1099
9 1 -0.643799 10.9601 -9.93511
10 1 -1.48455 10.8719 -10.2452
11 1 -1.81942 11.1425 -11.0412
12 1 -1.30533 11.2211 -11.8093
13 1 -0.418145 10.8206 -11.7997
14 1 0.430898 10.4061 -11.9481
15 1 0.568708 9.48685 -11.7615
16 1 0.356343 9.38784 -12.7175
17 1 1.22282 9.06506 -12.7966
18 1 2.0193 9.48492 -13.0798
19 1 2.00371 10.0429 -13.8466
20 1 2.63273 10.3597 -14.4927
21 1 2.99784 9.85127 -15.1336
22 1 3.70221 9.25465 -14.8817
23 1 3.73306 9.45161 -15.8357
24 1 3.41977 9.93358 -16.5834
25 1 3.91192 10.7637 -16.5035
26 1 3.29552 11.1 -17.2398
27 1 3.1783 12.0788 -17.4446
28 1 2.56268 12.5048 -17.9768
29 1 1.88632 12.8972 -18.4949
30 1 2.11141 13.8316 -18.4295
31 1 2.89259 13.9811 -18.9234
32 1 3.42536 13.9918 -18.0688
ITEM: TIMESTEP
140000
ITEM: NUMBER OF ATOMS
32
ITEM: BOX BOUNDS mm mm mm
-1.6000000000000000e+01 1.6000000000000000e+01
-1.6000000000000000e+01 1.9720478736744631e+01
-1.6000000000000000e+01 1.6000000000000000e+01
ITEM: ATOMS id type x y z
1 1 5.48954 12.1556 -15.6927
2 1 5.56655 11.7408 -14.8371
3 1 5.49127 11.6404 -13.8807
4 1 6.06533 12.4235 -13.8396
5 1 6.93456 12.7049 -14.0018
6 1 7.06389 12.9457 -13.1044
7 1 6.77836 12.4204 -12.3862
8 1 6.10797 13.1532 -12.5242
9 1 5.7816 13.6862 -13.1794
10 1 5.5602 14.1874 -12.4362
11 1 4.64063 14.42 -12.3317
12 1 4.02602 15.1232 -12.1226
13 1 3.76775 15.1649 -11.2281
14 1 3.07844 15.8295 -11.4737
15 1 2.55766 16.4756 -11.8975
16 1 2.84327 17.2796 -12.2813
17 1 2.27978 17.7054 -12.8636
18 1 1.43237 17.906 -13.0617
19 1 0.735576 17.4497 -13.599
20 1 0.488546 17.4642 -14.552
21 1 -0.190805 17.9092 -15.0719
22 1 -0.573522 18.5821 -15.5511
23 1 -0.376569 19.4657 -15.5488
24 1 -1.29197 19.5053 -15.6003
25 1 -2.15023 19.7894 -15.72
26 1 -2.28528 18.828 -15.6455
27 1 -2.01759 17.9506 -15.3723
28 1 -1.94954 18.1244 -14.4309
29 1 -2.71894 17.8952 -13.9365
30 1 -3.05703 18.0764 -14.7439
31 1 -3.02753 18.9857 -14.3793
32 1 -2.523 19.323 -13.7323
ITEM: TIMESTEP
150000
ITEM: NUMBER OF ATOMS
32
ITEM: BOX BOUNDS mm mm mm
-1.6000000000000000e+01 1.6000000000000000e+01
-1.6000000000000000e+01 1.9365209170702837e+01
-1.6000000000000000e+01 1.6000000000000000e+01
ITEM: ATOMS id type x y z
1 1 4.06268 17.63 -11.6305
2 1 4.47675 18.0411 -10.8437
3 1 4.25932 18.6906 -10.1593
4 1 4.22159 17.9501 -9.58794
5 1 5.02879 17.5572 -9.39134
6 1 5.42057 16.7912 -9.73364
7 1 5.56694 16.1569 -10.3737
8 1 6.25762 15.9021 -10.9669
9 1 6.60639 16.5177 -11.596
10 1 5.98414 16.859 -12.1993
11 1 6.50352 17.0863 -12.9156
12 1 6.92298 17.1563 -13.8175
13 1 6.08409 17.6439 -13.7972
14 1 5.63828 16.875 -13.9905
15 1 4.76163 16.6866 -14.3351
16 1 4.63511 17.5266 -14.7839
17 1 4.67245 18.4405 -14.6133
18 1 3.72705 18.5571 -14.7323
19 1 3.60008 18.3792 -13.8
20 1 2.88614 18.8001 -13.3792
21 1 2.16942 18.5831 -12.8212
22 1 2.30291 19.3901 -12.3198
23 1 1.51379 19.1045 -11.8501
24 1 0.750009 18.5554 -11.6883
25 1 0.160433 19.2855 -11.7787
26 1 -0.388973 19.0231 -11.0739
27 1 -0.815616 18.5844 -10.3976
28 1 -1.45816 18.3178 -9.76279
29 1 -2.02009 18.044 -9.08315
30 1 -2.70164 18.537 -8.60976
31 1 -2.41018 19.0467 -7.88188
32 1 -2.31384 18.6609 -7.06573
ITEM: TIMESTEP
160000
ITEM: NUMBER OF ATOMS
32
ITEM: BOX BOUNDS mm mm mm
-1.6000000000000000e+01 1.6000000000000000e+01
-1.6000000000000000e+01 1.9807919546590298e+01
-1.6000000000000000e+01 1.6000000000000000e+01
ITEM: ATOMS id type x y z
1 1 4.48734 16.5479 -7.06425
2 1 4.11752 15.7946 -6.57241
3 1 4.41866 15.2462 -7.26917
4 1 5.20487 15.6528 -6.95874
5 1 6.07607 15.6186 -7.3097
6 1 5.99823 16.3111 -7.93786
7 1 5.80471 15.9945 -8.83671
8 1 5.48904 16.5634 -9.4491
9 1 5.65069 15.7198 -9.93551
10 1 4.99147 15.6053 -10.6248
11 1 4.9135 15.2336 -11.4772
12 1 5.71871 15.7299 -11.7256
13 1 5.03418 16.4034 -11.4934
14 1 4.27004 16.2586 -11.9612
15 1 3.66755 15.5786 -11.6118
16 1 2.78782 15.7696 -11.2804
17 1 2.06613 15.2936 -11.629
18 1 1.16544 15.2525 -11.4298
19 1 0.600677 15.9821 -11.4003
20 1 -0.0604734 15.972 -10.6705
21 1 -0.686214 16.6482 -10.8522
22 1 -0.856345 16.9566 -11.7421
23 1 -1.6559 17.4442 -11.6893
24 1 -1.88763 17.6022 -12.6209
25 1 -2.71735 18.0013 -12.4026
26 1 -3.31352 17.9536 -13.0804
27 1 -3.96683 18.5849 -12.9324
28 1 -4.284 19.5042 -13.0822
29 1 -4.00966 19.3299 -12.1625
30 1 -3.72202 18.857 -11.408
31 1 -3.30161 19.2776 -10.6565
32 1 -2.81243 18.4411 -10.5504
ITEM: TIMESTEP
170000
ITEM: NUMBER OF ATOMS
32
ITEM: BOX BOUNDS mm mm mm
-1.6000000000000000e+01 1.6000000000000000e+01
-1.6000000000000000e+01 2.0208859300373454e+01
-1.6000000000000000e+01 1.6000000000000000e+01
ITEM: ATOMS id type x y z
1 1 8.49103 15.0876 -14.502
2 1 8.64905 15.7478 -13.8514
3 1 8.63461 15.7537 -12.9064
4 1 7.93182 16.3303 -12.5247
5 1 7.00266 16.6186 -12.4639
6 1 7.53839 16.7223 -11.7001
7 1 7.19433 16.6673 -10.8503
8 1 6.39636 16.4619 -11.4218
9 1 5.41809 16.503 -11.339
10 1 5.18355 16.9214 -10.5669
11 1 5.44563 16.1343 -10.1741
12 1 5.10872 15.6811 -9.42433
13 1 4.22004 15.9095 -9.17301
14 1 3.71634 15.961 -9.92135
15 1 3.27752 15.0998 -9.59159
16 1 3.23099 14.2004 -9.98065
17 1 3.20103 14.8174 -10.7416
18 1 2.52937 15.4154 -11.0394
19 1 1.63243 15.6925 -10.8473
20 1 1.09141 16.4066 -11.0905
21 1 0.610597 16.2526 -10.352
22 1 -0.161005 16.5651 -9.90028
23 1 -0.86135 17.1968 -9.93829
24 1 -1.55422 17.7601 -9.69918
25 1 -2.52683 17.9333 -9.47592
26 1 -1.96121 18.572 -8.98747
27 1 -1.15455 19.0493 -9.02357
28 1 -1.37562 19.8448 -8.57062
29 1 -1.46718 19.7965 -7.57658
30 1 -2.36124 19.5476 -7.63741
31 1 -3.10653 20.054 -7.90818
32 1 -3.63005 19.2241 -7.8035
ITEM: TIMESTEP
180000
ITEM: NUMBER OF ATOMS
32
ITEM: BOX BOUNDS mm mm mm
-1.6000000000000000e+01 1.6000000000000000e+01
-1.6000000000000000e+01 2.2846220004142875e+01
-1.6000000000000000e+01 1.6000000000000000e+01
ITEM: ATOMS id type x y z
1 1 4.05033 15.8711 -11.5783
2 1 3.45717 15.1823 -11.9126
3 1 2.73095 14.624 -12.1523
4 1 2.3714 14.4349 -11.2786
5 1 3.14954 13.8752 -11.1213
6 1 2.95169 13.7148 -10.2538
7 1 2.69838 14.4088 -9.64126
8 1 3.14936 15.1939 -9.32619
9 1 2.68348 15.7106 -8.70752
10 1 2.2671 15.883 -9.59866
11 1 2.10199 16.7861 -9.71779
12 1 2.15578 17.7837 -9.94909
13 1 2.24109 18.4786 -10.5898
14 1 1.84645 18.0369 -11.3034
15 1 1.8403 18.7598 -11.9509
16 1 1.17993 19.4245 -11.8886
17 1 0.212877 19.2882 -11.8185
18 1 -0.147073 19.5164 -11.0042
19 1 -0.184571 20.3426 -11.5407
20 1 0.478964 20.9795 -11.5762
21 1 1.1812 20.8812 -12.2318
22 1 0.545489 20.4276 -12.783
23 1 0.142848 21.098 -13.2944
24 1 -0.802648 21.1786 -13.2777
25 1 -0.962496 21.9377 -13.8371
26 1 -0.183902 22.3991 -13.6504
27 1 -0.00667327 22.1957 -14.5109
28 1 0.0760394 22.782 -15.1793
29 1 0.940575 22.7772 -15.6005
30 1 1.07136 22.7007 -14.6048
31 1 1.4908 22.2351 -13.8974
32 1 2.37865 22.5852 -14.0264
ITEM: TIMESTEP
190000
ITEM: NUMBER OF ATOMS
32
ITEM: BOX BOUNDS mm mm mm
-1.6000000000000000e+01 1.6000000000000000e+01
-1.6000000000000000e+01 2.6578305861260883e+01
-1.6000000000000000e+01 1.6000000000000000e+01
ITEM: ATOMS id type x y z
1 1 2.33673 18.8767 -15.8261
2 1 2.75771 18.7148 -15.0445
3 1 2.51089 18.2995 -14.2049
4 1 2.17509 17.8417 -13.4232
5 1 1.9573 18.3079 -12.6521
6 1 1.83262 19.1847 -12.1939
7 1 1.30065 20.0131 -12.3039
8 1 0.759044 20.7306 -12.5554
9 1 0.929195 21.283 -13.3355
10 1 0.851854 21.5464 -14.2615
11 1 0.563704 22.1797 -13.6546
12 1 0.82324 22.8068 -13.0337
13 1 0.728276 22.411 -12.1266
14 1 0.955825 22.9803 -11.4247
15 1 1.8884 22.7291 -11.4315
16 1 1.70023 21.8532 -11.6942
17 1 0.914115 21.4602 -11.5491
18 1 0.467553 22.137 -11.078
19 1 0.196359 22.8591 -10.5177
20 1 -0.522963 23.4444 -10.4937
21 1 0.112936 23.9486 -9.98794
22 1 -0.561495 24.107 -9.30166
23 1 -0.764389 24.3157 -8.42781
24 1 -0.952518 24.6927 -7.61141
25 1 -1.90062 24.9306 -7.67694
26 1 -1.83807 25.8385 -7.48621
27 1 -2.41544 25.9804 -8.23831
28 1 -2.20121 25.4124 -8.94599
29 1 -1.55868 25.3843 -9.65839
30 1 -0.6399 25.4394 -9.80373
31 1 -0.170637 26.1392 -9.56594
32 1 0.578984 26.4436 -9.10531
ITEM: TIMESTEP
200000
ITEM: NUMBER OF ATOMS
32
ITEM: BOX BOUNDS mm mm mm
-1.6000000000000000e+01 1.6000000000000000e+01
-1.6000000000000000e+01 2.3680191707394080e+01
-1.9182712479079935e+01 1.6000000000000000e+01
ITEM: ATOMS id type x y z
1 1 0.0931124 23.4177 -18.8684
2 1 -0.467478 23.7746 -18.2273
3 1 -0.154657 23.1293 -17.6455
4 1 -0.776526 22.6744 -17.0663
5 1 -1.51803 22.5113 -17.6
6 1 -2.10389 22.0128 -17.1043
7 1 -2.96164 21.7105 -16.92
8 1 -2.36785 21.4245 -16.2472
9 1 -1.92147 20.6329 -15.9033
10 1 -1.89807 19.7609 -15.5784
11 1 -1.1174 20.0465 -15.1725
12 1 -0.776157 20.3191 -14.37
13 1 -0.605537 20.529 -13.4233
14 1 -1.31125 20.6179 -12.8106
15 1 -0.520316 20.6041 -12.3264
16 1 -0.919763 20.9061 -11.4918
17 1 -1.12669 19.9933 -11.6532
18 1 -0.988518 19.5395 -10.8343
19 1 -0.823228 20.2881 -10.2878
20 1 -1.27587 20.2701 -9.49629
21 1 -2.19979 19.9488 -9.31736
22 1 -2.61531 20.2593 -8.48726
23 1 -3.0902 20.8227 -7.89162
24 1 -2.42561 20.7582 -7.19227
25 1 -1.6138 21.2152 -7.28944
26 1 -1.32186 20.703 -6.5387
27 1 -0.508302 20.317 -6.40238
28 1 0.150332 19.7803 -5.94686
29 1 0.386241 19.1948 -6.62318
30 1 -0.516407 19.2383 -6.95929
31 1 -0.814841 18.7759 -7.76264
32 1 -1.42044 18.1843 -7.34376
ITEM: TIMESTEP
210000
ITEM: NUMBER OF ATOMS
32
ITEM: BOX BOUNDS mm mm mm
-1.6000000000000000e+01 1.6000000000000000e+01
-1.6000000000000000e+01 2.3988574399441756e+01
-1.6000000000000000e+01 1.6000000000000000e+01
ITEM: ATOMS id type x y z
1 1 3.19712 12.0376 -15.0158
2 1 2.97364 12.9663 -14.9796
3 1 2.51248 13.0198 -14.1676
4 1 1.92946 13.6017 -14.5718
5 1 1.49627 14.2038 -15.1777
6 1 1.31326 15.06 -15.356
7 1 0.86913 15.4733 -14.6095
8 1 1.65169 15.5452 -14.1275
9 1 1.44194 16.22 -13.564
10 1 0.585952 16.4807 -13.185
11 1 1.24013 17.1368 -12.906
12 1 2.01143 17.7232 -12.7246
13 1 2.80617 18.2852 -12.7107
14 1 3.36806 19.0231 -12.7422
15 1 2.68639 19.2426 -13.3576
16 1 2.84941 19.9894 -12.7364
17 1 1.97578 20.3192 -12.5384
18 1 2.053 19.4582 -12.2383
19 1 1.99543 20.0008 -11.4068
20 1 1.43609 19.4446 -10.967
21 1 1.61422 18.7619 -11.6242
22 1 0.69757 18.6698 -11.5406
23 1 0.58591 19.6085 -11.3916
24 1 0.126037 20.1585 -11.963
25 1 0.281761 21.0647 -12.1401
26 1 -0.219569 21.4416 -11.422
27 1 0.260633 22.125 -10.9377
28 1 0.489376 22.6942 -10.2352
29 1 0.239531 23.5854 -10.1465
30 1 0.684435 23.354 -9.35072
31 1 0.785077 23.6882 -8.48036
32 1 0.0375793 24.024 -8.93456
ITEM: TIMESTEP
220000
ITEM: NUMBER OF ATOMS
32
ITEM: BOX BOUNDS mm mm mm
-1.6000000000000000e+01 1.6000000000000000e+01
-1.6000000000000000e+01 2.3080051483402247e+01
-1.6000000000000000e+01 1.6000000000000000e+01
ITEM: ATOMS id type x y z
1 1 2.20929 19.6204 -2.97498
2 1 2.70859 19.584 -3.7545
3 1 2.62293 19.9417 -4.62679
4 1 2.83517 20.0316 -5.57894
5 1 3.25806 20.3489 -6.44368
6 1 3.89812 21.0115 -6.56135
7 1 3.70899 20.5855 -7.34841
8 1 3.54423 19.6862 -7.55207
9 1 3.12462 20.0134 -8.32698
10 1 3.28561 20.4067 -9.14141
11 1 2.81481 20.0769 -9.93428
12 1 3.18659 20.7191 -10.5624
13 1 2.77314 21.3227 -11.1959
14 1 2.07548 20.8929 -11.6767
15 1 1.5251 21.1695 -12.3591
16 1 1.30075 22.0505 -12.4855
17 1 1.62435 22.9182 -12.6768
18 1 1.01421 22.6426 -13.3499
19 1 1.8127 22.1616 -13.375
20 1 1.66023 22.2556 -14.3399
21 1 1.01986 21.5698 -14.3755
22 1 0.826151 21.4394 -15.2382
23 1 0.385566 20.9244 -15.9697
24 1 -0.414186 20.9882 -15.5308
25 1 -0.540811 20.2498 -14.915
26 1 -1.17211 19.6412 -14.568
27 1 -1.44502 19.8177 -13.6739
28 1 -0.543533 20.0099 -13.5931
29 1 -0.347646 19.1745 -13.1864
30 1 -1.18709 19.2831 -12.6435
31 1 -1.54148 18.506 -12.9952
32 1 -1.68693 17.5827 -13.0778
ITEM: TIMESTEP
230000
ITEM: NUMBER OF ATOMS
32
ITEM: BOX BOUNDS mm mm mm
-1.6000000000000000e+01 1.6000000000000000e+01
-1.6000000000000000e+01 2.2327618095882158e+01
-1.8521624257509362e+01 1.6000000000000000e+01
ITEM: ATOMS id type x y z
1 1 7.34565 18.608 -9.40312
2 1 7.04474 18.448 -10.3121
3 1 7.16093 17.8225 -10.9957
4 1 7.95148 18.2108 -11.2555
5 1 8.84792 18.034 -11.3946
6 1 9.56477 18.2109 -11.943
7 1 9.21667 18.6215 -12.7668
8 1 8.88413 19.0328 -12.0049
9 1 8.66779 19.9663 -12.0277
10 1 8.27966 20.7345 -11.7705
11 1 7.6742 21.158 -12.3396
12 1 8.26783 21.8508 -12.4874
13 1 8.34677 22.0514 -13.4221
14 1 7.75696 21.8325 -14.0912
15 1 7.14145 22.1243 -14.8146
16 1 6.55361 22.0915 -15.553
17 1 6.05179 22.7279 -15.0347
18 1 5.49058 22.42 -15.7109
19 1 5.10977 21.5812 -15.8652
20 1 4.3243 21.0985 -15.8782
21 1 3.78714 20.7005 -15.1446
22 1 3.70985 19.9964 -15.7543
23 1 4.49415 19.5953 -15.3938
24 1 3.89827 18.9359 -15.7094
25 1 4.08556 18.3514 -14.9849
26 1 4.95082 17.9709 -14.959
27 1 4.96982 17.057 -15.2132
28 1 4.58646 17.2914 -16.0287
29 1 5.25629 16.5665 -16.1483
30 1 5.12818 16.1356 -16.9973
31 1 5.32307 16.5348 -17.8125
32 1 6.12322 16.6071 -18.304
ITEM: TIMESTEP
240000
ITEM: NUMBER OF ATOMS
32
ITEM: BOX BOUNDS mm mm mm
-1.6000000000000000e+01 1.6000000000000000e+01
-1.6000000000000000e+01 1.8988402554225363e+01
-1.7528862413053972e+01 1.6000000000000000e+01
ITEM: ATOMS id type x y z
1 1 8.0057 16.9782 -12.1083
2 1 7.66743 16.2681 -12.6217
3 1 7.7855 15.7578 -11.8596
4 1 8.80007 15.675 -11.8672
5 1 8.98357 15.3094 -12.7139
6 1 9.88929 15.3299 -12.448
7 1 10.4145 15.8485 -11.8123
8 1 10.7354 16.29 -12.6324
9 1 10.9277 15.7932 -13.4438
10 1 11.5083 15.687 -14.2226
11 1 10.6371 15.8782 -14.5696
12 1 10.099 15.5796 -15.3718
13 1 9.29672 16.0404 -15.4423
14 1 8.49826 16.5277 -15.2695
15 1 7.72414 16.7428 -15.7283
16 1 7.97971 17.6256 -15.8218
17 1 7.55532 17.8981 -16.5507
18 1 7.15701 18.3631 -17.3747
19 1 6.22686 18.4227 -17.1991
20 1 6.63186 18.6523 -16.3519
21 1 6.29012 17.9374 -15.9049
22 1 6.72787 17.9724 -15.034
23 1 5.7467 17.9086 -15.1124
24 1 5.68406 17.0483 -14.5983
25 1 4.90088 16.7282 -14.1023
26 1 4.88772 17.2466 -13.2942
27 1 4.89571 16.6372 -12.6185
28 1 4.16011 16.8815 -12.159
29 1 3.90081 16.273 -11.5203
30 1 3.85194 15.3468 -11.2931
31 1 2.91077 15.2898 -11.5254
32 1 3.06157 14.8427 -12.4235
ITEM: TIMESTEP
250000
ITEM: NUMBER OF ATOMS
32
ITEM: BOX BOUNDS mm mm mm
-1.6000000000000000e+01 1.6000000000000000e+01
-1.6000000000000000e+01 1.6651615086722838e+01
-1.7239001204979765e+01 1.6000000000000000e+01
ITEM: ATOMS id type x y z
1 1 9.90686 16.5605 -12.784
2 1 9.72344 16.282 -11.8889
3 1 8.9719 15.735 -11.7456
4 1 8.84128 15.0386 -12.3531
5 1 8.92602 14.6822 -13.2083
6 1 9.82382 15.0298 -13.0431
7 1 9.83993 14.9344 -13.9618
8 1 10.234 14.5606 -14.7392
9 1 9.82421 14.2244 -15.5055
10 1 9.21498 13.8366 -16.0613
11 1 8.40167 13.3817 -16.2555
12 1 7.64299 13.1784 -16.7381
13 1 6.94282 13.6448 -16.3041
14 1 6.62182 13.294 -17.1264
15 1 6.7818 12.588 -16.5649
16 1 6.75821 12.1702 -15.7567
17 1 7.54875 11.9641 -15.281
18 1 7.33445 12.0605 -14.3553
19 1 6.52095 12.022 -14.7503
20 1 6.15634 12.03 -13.8815
21 1 5.67571 12.2257 -13.1414
22 1 5.30327 11.3823 -13.1095
23 1 4.66569 10.7546 -13.3924
24 1 3.74186 10.9772 -13.5111
25 1 3.04138 11.2059 -12.873
26 1 2.03818 11.2627 -12.7667
27 1 1.96819 12.1753 -12.9704
28 1 1.76124 13.0204 -13.0764
29 1 1.71802 13.9204 -13.3347
30 1 1.86957 14.6235 -12.7123
31 1 2.47864 14.3943 -11.893
32 1 2.98067 14.6547 -11.0934
ITEM: TIMESTEP
260000
ITEM: NUMBER OF ATOMS
32
ITEM: BOX BOUNDS mm mm mm
-1.6000000000000000e+01 1.6000000000000000e+01
-1.6000000000000000e+01 1.7290815355027590e+01
-1.6000000000000000e+01 1.6000000000000000e+01
ITEM: ATOMS id type x y z
1 1 15.1208 15.4796 -9.33816
2 1 14.6563 15.6036 -10.1674
3 1 13.9267 15.0951 -10.4693
4 1 13.4994 14.5862 -9.73303
5 1 13.2921 14.1937 -8.89863
6 1 12.5306 13.7669 -8.58622
7 1 11.762 14.0382 -9.12334
8 1 10.8679 14.0414 -8.97392
9 1 10.0236 13.7117 -8.62765
10 1 9.77444 12.9049 -9.14209
11 1 9.05187 13.5324 -9.21514
12 1 9.00348 14.4211 -9.07381
13 1 8.1026 14.109 -8.95766
14 1 7.29309 14.4706 -9.01057
15 1 7.93342 15.094 -9.29578
16 1 8.28803 15.5915 -10.0127
17 1 8.09512 16.4199 -10.4692
18 1 7.52133 17.0888 -10.0261
19 1 6.67571 17.2529 -9.71888
20 1 6.05701 16.5289 -9.53084
21 1 6.37461 17.0271 -8.80428
22 1 7.10498 17.063 -8.20661
23 1 7.53508 16.4202 -7.66501
24 1 8.31941 16.8129 -7.95572
25 1 9.14705 17.2664 -7.70536
26 1 10.0227 17.38 -7.91357
27 1 10.7111 17.0219 -8.43971
28 1 10.5975 16.1414 -8.29895
29 1 10.3324 15.4472 -7.71969
30 1 9.52964 14.9627 -7.99995
31 1 9.02685 14.3429 -7.44197
32 1 8.09883 14.3515 -7.45592
ITEM: TIMESTEP
270000
ITEM: NUMBER OF ATOMS
32
ITEM: BOX BOUNDS mm mm mm
-1.6000000000000000e+01 1.6000000000000000e+01
-1.6000000000000000e+01 1.6139553523344645e+01
-1.6000000000000000e+01 1.6000000000000000e+01
ITEM: ATOMS id type x y z
1 1 8.49026 10.706 -5.81559
2 1 9.15519 10.2337 -6.35871
3 1 9.84909 10.9282 -6.08024
4 1 10.5476 11.3418 -6.67136
5 1 10.1515 12.0371 -7.15347
6 1 9.52733 11.8989 -7.92314
7 1 9.41051 11.8842 -8.86692
8 1 9.36129 12.8214 -8.86318
9 1 10.0074 13.1833 -8.30843
10 1 10.7136 12.6004 -8.20645
11 1 11.4614 13.0739 -8.47511
12 1 11.4501 12.8967 -9.37644
13 1 12.2739 13.5211 -9.31781
14 1 12.804 13.7746 -8.59738
15 1 12.8087 14.1437 -7.74535
16 1 12.0906 14.4017 -7.25785
17 1 11.4227 14.3916 -7.93246
18 1 10.7783 14.9844 -8.34454
19 1 10.2521 14.9884 -7.60548
20 1 10.4715 15.5155 -6.84978
21 1 10.1039 16.0546 -6.14848
22 1 9.68319 15.2559 -6.20532
23 1 8.79017 15.0639 -6.06832
24 1 8.33605 15.6348 -6.71108
25 1 7.36281 15.4682 -6.65934
26 1 7.8004 14.6359 -6.82947
27 1 8.18285 14.2572 -6.04573
28 1 7.2595 14.1645 -6.0961
29 1 6.85675 13.744 -5.39002
30 1 6.51778 13.008 -5.72116
31 1 7.02711 12.1891 -5.86508
32 1 7.7171 12.7357 -6.17523
ITEM: TIMESTEP
280000