ITEM: TIMESTEP
3480000
ITEM: NUMBER OF ATOMS
32
ITEM: BOX BOUNDS mm mm mm
-1.6000000000000000e+01 1.6000000000000000e+01
-1.6000000000000000e+01 1.8781854843523561e+01
-2.6557857186001947e+01 1.6000000000000000e+01
ITEM: ATOMS id type x y z
1 1 3.21324 12.8736 -15.8348
2 1 3.42274 13.5915 -16.3511
3 1 2.96841 14.145 -17.0335
4 1 2.88995 14.5985 -17.8567
5 1 2.66384 15.1846 -18.5709
6 1 2.43259 15.7909 -19.2335
7 1 2.70239 16.3441 -19.9872
8 1 2.64383 16.5823 -20.8648
9 1 2.77295 16.5948 -21.7624
10 1 2.92652 16.3976 -22.6998
11 1 3.13973 16.35 -23.5878
12 1 3.66313 16.2155 -24.4046
13 1 4.06529 16.4091 -25.305
14 1 4.69296 16.7332 -25.9081
15 1 5.56734 16.4574 -26.3002
16 1 6.47519 16.6034 -26.5536
17 1 7.18483 16.9867 -25.9972
18 1 8.12262 16.7901 -25.7532
19 1 9.02978 16.7167 -25.4836
20 1 9.53028 16.5763 -24.7148
21 1 10.2024 16.5816 -24.0161
22 1 10.594 16.1192 -23.256
23 1 10.5145 16.2506 -22.2932
24 1 10.6808 16.7097 -21.485
25 1 10.5264 17.151 -20.6552
26 1 10.1287 16.89 -19.8408
27 1 9.95602 16.5565 -19.025
28 1 9.824 16.8173 -18.113
29 1 9.40185 16.9612 -17.277
30 1 9.54719 17.5577 -16.5387
31 1 10.0309 18.3109 -16.6295
32 1 10.908 18.7784 -16.861
ITEM: TIMESTEP
3490000
ITEM: NUMBER OF ATOMS
32
ITEM: BOX BOUNDS mm mm mm
-1.6000000000000000e+01 1.6000000000000000e+01
-1.6000000000000000e+01 1.6000000000000000e+01
-3.0529958668831291e+01 1.6000000000000000e+01
ITEM: ATOMS id type x y z
1 1 5.34388 9.67279 -20.1031
2 1 5.75059 9.50641 -20.9416
3 1 5.91451 9.33298 -21.8383
4 1 5.94582 9.23758 -22.7847
5 1 6.20049 9.41162 -23.6126
6 1 6.21831 9.36863 -24.5642
7 1 6.20686 9.44744 -25.5018
8 1 5.98691 9.28559 -26.4126
9 1 6.25995 9.39139 -27.2932
10 1 6.72798 9.89726 -27.9049
11 1 7.25643 10.5462 -28.2584
12 1 7.98145 11.198 -28.4771
13 1 8.27911 11.7094 -29.199
14 1 8.85656 12.1168 -29.8521
15 1 9.39687 12.787 -30.2982
16 1 10.1208 13.3489 -30.4789
17 1 11.0313 13.2149 -30.3934
18 1 11.8018 13.6127 -30.0411
19 1 12.4436 14.1914 -29.7108
20 1 12.9208 14.9977 -29.761
21 1 13.1543 15.8632 -29.3602
22 1 13.3601 16.2228 -28.5118
23 1 13.0198 15.88 -27.717
24 1 12.8467 15.2769 -27.0154
25 1 12.9239 14.6411 -26.2809
26 1 12.5147 13.7993 -25.81
27 1 12.1833 13.2011 -25.1551
28 1 12.1181 12.4743 -24.5039
29 1 12.1622 11.5891 -24.0078
30 1 12.3686 10.8971 -23.3969
31 1 12.6903 10.1542 -22.8535
32 1 12.7997 9.66662 -21.9998
ITEM: TIMESTEP
3500000
ITEM: NUMBER OF ATOMS
32
ITEM: BOX BOUNDS mm mm mm
-1.6000000000000000e+01 1.6000000000000000e+01
-1.6000000000000000e+01 2.1846516171954040e+01
-3.0271450455320220e+01 1.6000000000000000e+01
ITEM: ATOMS id type x y z
1 1 3.43534 11.7731 -30.2687
2 1 4.10719 11.0061 -30.0977
3 1 4.65667 10.3545 -29.6531
4 1 5.2974 9.83661 -29.1774
5 1 5.3348 9.15807 -28.5106
6 1 5.69794 8.52136 -27.9484
7 1 6.30425 8.34621 -27.2756
8 1 6.95281 8.21207 -26.5714
9 1 7.58318 8.38132 -25.9033
10 1 8.0398 8.38376 -25.0243
11 1 8.35222 9.1275 -24.4787
12 1 9.07441 9.66272 -24.0322
13 1 9.73898 10.3037 -23.8582
14 1 10.3411 11.0599 -23.9016
15 1 11.0598 11.5886 -23.6082
16 1 11.8289 12.1229 -23.3508
17 1 12.3513 12.8552 -23.1499
18 1 12.9607 13.5207 -22.8039
19 1 13.5757 14.1835 -22.6889
20 1 13.7022 15.0009 -23.1203
21 1 13.4036 15.7549 -23.5429
22 1 12.8955 16.4528 -23.9694
23 1 12.8855 17.243 -24.4875
24 1 12.6522 18.0888 -24.8909
25 1 12.1991 18.7664 -25.3526
26 1 11.4207 19.1984 -25.501
27 1 11.1397 19.7156 -26.2302
28 1 10.8165 20.2577 -26.994
29 1 10.7526 20.3388 -27.8782
30 1 10.9055 20.9633 -28.5725
31 1 11.1228 21.5135 -29.2965
32 1 11.3448 21.799 -30.1241
ITEM: TIMESTEP
3510000
ITEM: NUMBER OF ATOMS
32
ITEM: BOX BOUNDS mm mm mm
-1.6000000000000000e+01 1.6000000000000000e+01
-1.6000000000000000e+01 1.9609674097527627e+01
-2.9961335101547203e+01 1.6000000000000000e+01
ITEM: ATOMS id type x y z
1 1 -4.50744 11.2845 -28.4304
2 1 -3.63945 11.5006 -28.2989
3 1 -2.76059 11.3176 -27.9399
4 1 -1.84862 10.9691 -27.9231
5 1 -0.949115 10.7216 -28.119
6 1 -0.0372647 10.746 -28.3693
7 1 0.89314 10.6499 -28.4234
8 1 1.84839 10.6178 -28.6917
9 1 2.79736 10.6162 -28.8905
10 1 3.58552 11.1162 -28.927
11 1 4.30462 11.7394 -28.7291
12 1 4.71953 12.5973 -28.5372
13 1 5.39976 13.0777 -28.0264
14 1 6.26962 13.2453 -28.001
15 1 7.13696 13.4495 -28.178
16 1 7.98829 13.7167 -27.863
17 1 8.99859 14.0573 -27.9213
18 1 9.88762 14.3626 -27.6928
19 1 10.5678 14.7799 -27.2977
20 1 11.0231 15.4905 -26.8116
21 1 10.9605 16.3861 -26.4197
22 1 10.7856 17.2968 -26.2374
23 1 10.5185 18.2172 -26.2259
24 1 10.2698 19.1004 -26.4653
25 1 9.5023 19.3525 -26.9592
26 1 9.00469 19.455 -27.7367
27 1 8.19978 19.1206 -28.0021
28 1 7.50633 18.6301 -28.3554
29 1 6.7102 18.1959 -28.5495
30 1 6.15324 17.6733 -29.17
31 1 6.02834 16.828 -29.5891
32 1 6.09482 15.8818 -29.4896
ITEM: TIMESTEP
3520000
ITEM: NUMBER OF ATOMS
32
ITEM: BOX BOUNDS mm mm mm
-1.6000000000000000e+01 1.6000000000000000e+01
-1.6000000000000000e+01 1.7964099115493386e+01
-3.3764344882207531e+01 1.6000000000000000e+01
ITEM: ATOMS id type x y z
1 1 -7.46198 11.1659 -26.6888
2 1 -6.56458 10.9815 -26.8924
3 1 -5.79355 10.6084 -27.2203
4 1 -5.05875 10.2578 -27.6282
5 1 -4.41336 10.3687 -28.3602
6 1 -3.81578 11.0768 -28.32
7 1 -3.36561 11.5941 -27.7357
8 1 -2.91246 12.3142 -28.0913
9 1 -2.20535 12.7894 -28.4286
10 1 -1.77825 13.201 -29.1263
11 1 -1.50141 13.6553 -29.9299
12 1 -1.60892 14.4662 -30.4248
13 1 -0.966916 15.0759 -30.9436
14 1 -0.106779 15.3244 -31.2465
15 1 0.683125 15.7489 -31.0036
16 1 1.6131 15.9561 -31.0769
17 1 2.34942 16.083 -31.6594
18 1 2.92243 15.7779 -32.3857
19 1 3.41764 15.7383 -33.1787
20 1 4.26095 15.7099 -33.6209
21 1 5.19123 15.8283 -33.779
22 1 6.06758 16.1997 -33.9187
23 1 6.85462 16.6396 -33.7031
24 1 7.65745 16.8896 -33.1619
25 1 7.95237 17.4988 -32.5229
26 1 8.72534 17.8054 -32.1015
27 1 9.28055 18.0342 -31.3578
28 1 9.65758 17.8919 -30.4447
29 1 9.4982 17.3606 -29.656
30 1 9.14942 16.9468 -28.876
31 1 9.04098 16.0661 -28.4423
32 1 9.276 15.1032 -28.3432
ITEM: TIMESTEP
3530000
ITEM: NUMBER OF ATOMS
32
ITEM: BOX BOUNDS mm mm mm
-1.6000000000000000e+01 1.6000000000000000e+01
-1.6000000000000000e+01 2.4983340593025776e+01
-3.1932671195841721e+01 1.6000000000000000e+01
ITEM: ATOMS id type x y z
1 1 -4.8961 25.1194 -24.0821
2 1 -5.24818 24.627 -24.7709
3 1 -5.3279 23.7227 -25.0203
4 1 -5.21115 22.7858 -25.2017
5 1 -4.78122 22.0724 -25.6453
6 1 -4.16976 21.5165 -26.1682
7 1 -3.8077 20.7954 -26.7068
8 1 -3.46886 19.9454 -26.9448
9 1 -2.67265 19.4022 -26.9619
10 1 -2.25908 18.6229 -27.3045
11 1 -2.1684 17.7902 -27.6891
12 1 -1.26553 17.5046 -27.8162
13 1 -0.517008 17.0603 -28.1365
14 1 0.209357 16.8592 -28.7274
15 1 1.12894 16.7961 -28.964
16 1 1.96653 16.7421 -29.3223
17 1 2.82099 16.8375 -29.7897
18 1 3.73761 16.9146 -29.9877
19 1 4.3554 16.7854 -30.6744
20 1 4.9637 16.3958 -31.3521
21 1 5.87776 16.3565 -31.4626
22 1 6.72494 16.4792 -31.8512
23 1 7.63645 16.7733 -31.8692
24 1 8.54625 17.0071 -31.9382
25 1 9.48572 16.8883 -31.9614
26 1 10.4423 17.0105 -31.7926
27 1 11.0945 17.2737 -31.1716
28 1 11.2897 17.1398 -30.2058
29 1 11.8296 16.6512 -29.6107
30 1 11.9987 16.2446 -28.7345
31 1 12.3114 16.1508 -27.8561
32 1 12.0471 16.4149 -27.0064
ITEM: TIMESTEP
3540000
ITEM: NUMBER OF ATOMS
32
ITEM: BOX BOUNDS mm mm mm
-1.6000000000000000e+01 1.6000000000000000e+01
-1.6000000000000000e+01 2.3780171427818630e+01
-3.0978193785040389e+01 1.6000000000000000e+01
ITEM: ATOMS id type x y z
1 1 -2.54417 21.4273 -19.5388
2 1 -1.78018 21.9317 -19.5157
3 1 -0.97778 22.4092 -19.651
4 1 -0.600999 23.0974 -20.1942
5 1 -0.344968 23.493 -21.0274
6 1 -0.569197 23.7597 -21.8767
7 1 -0.717758 23.9416 -22.8041
8 1 -0.632564 23.5026 -23.5971
9 1 -0.568789 22.9454 -24.3593
10 1 -0.153805 22.1444 -24.6038
11 1 0.544814 21.7194 -25.092
12 1 1.09391 21.4965 -25.8603
13 1 1.44005 21.412 -26.7546
14 1 1.49765 20.9654 -27.6139
15 1 1.75212 20.6722 -28.4258
16 1 2.48986 20.8798 -29.0109
17 1 3.12676 20.6303 -29.6345
18 1 3.71074 20.5508 -30.3285
19 1 4.52636 20.8296 -30.6801
20 1 5.40876 20.6175 -30.7786
21 1 6.30374 20.9529 -30.7163
22 1 6.80301 21.7158 -30.4792
23 1 7.5902 22.103 -30.1984
24 1 8.44138 22.278 -30.4341
25 1 9.0453 22.8798 -30.8937
26 1 9.88958 23.2562 -30.8856
27 1 10.8239 23.3344 -30.8146
28 1 11.7208 23.134 -30.6853
29 1 12.6434 23.0719 -30.6974
30 1 13.299 22.7013 -30.174
31 1 13.9265 22.5106 -29.4824
32 1 14.8855 22.4075 -29.2214
ITEM: TIMESTEP
3550000
ITEM: NUMBER OF ATOMS
32
ITEM: BOX BOUNDS mm mm mm
-1.6000000000000000e+01 1.6000000000000000e+01
-1.6000000000000000e+01 2.8726128230831872e+01
-3.0984454913507356e+01 1.6000000000000000e+01
ITEM: ATOMS id type x y z
1 1 5.27725 26.0619 -19.0615
2 1 5.24012 26.2498 -20.0279
3 1 4.8762 26.291 -20.8656
4 1 4.32129 26.2945 -21.6557
5 1 3.75778 26.2438 -22.4247
6 1 3.38567 26.3466 -23.2682
7 1 2.79693 26.0258 -23.9865
8 1 2.02365 25.9386 -24.4641
9 1 1.23506 25.9458 -25.0497
10 1 0.838432 25.8758 -25.8771
11 1 0.797899 26.3901 -26.6795
12 1 1.64171 26.6644 -27.1068
13 1 2.02256 26.2759 -27.8069
14 1 2.45221 25.8535 -28.4855
15 1 3.01698 25.3166 -29.1462
16 1 3.05823 24.3635 -29.2146
17 1 3.31604 23.5509 -29.6888
18 1 3.64195 22.7796 -30.1576
19 1 4.30053 22.1417 -30.4271
20 1 4.98362 21.5923 -30.7116
21 1 5.93276 21.8132 -30.8587
22 1 6.79733 21.935 -30.447
23 1 7.47235 22.1328 -29.8124
24 1 8.00115 22.6871 -29.3697
25 1 8.83475 23.083 -29.1599
26 1 9.33401 23.8131 -29.2267
27 1 9.35222 24.6674 -28.8062
28 1 9.4916 25.4953 -28.253
29 1 9.72682 26.3676 -27.9596
30 1 10.1436 27.1386 -27.6151
31 1 10.2423 27.924 -27.0658
32 1 9.97264 28.6261 -26.4615
ITEM: TIMESTEP
3560000
ITEM: NUMBER OF ATOMS
32
ITEM: BOX BOUNDS mm mm mm
-1.6000000000000000e+01 1.6000000000000000e+01
-1.6000000000000000e+01 3.0784148494783917e+01
-3.1284207029062046e+01 1.6000000000000000e+01
ITEM: ATOMS id type x y z
1 1 4.7412 29.0982 -12.9903
2 1 3.92717 29.2081 -12.5214
3 1 3.22085 29.799 -12.5695
4 1 2.822 30.5982 -12.8574
5 1 2.3861 30.5836 -13.7117
6 1 1.94762 30.3093 -14.5382
7 1 1.4991 30.3696 -15.3855
8 1 0.952371 30.1898 -16.1458
9 1 0.776585 29.8521 -16.9375
10 1 0.794298 29.4217 -17.7674
11 1 0.27147 28.9318 -18.4459
12 1 -0.0741056 28.0738 -18.8064
13 1 0.0743732 27.5677 -19.6314
14 1 0.272665 27.039 -20.3823
15 1 0.907745 26.9126 -21.0814
16 1 1.71104 26.7247 -21.6177
17 1 2.48482 26.3129 -21.9664
18 1 3.09595 25.8592 -22.4667
19 1 3.72812 25.6325 -23.1221
20 1 3.7045 25.1072 -23.8683
21 1 3.65576 24.5176 -24.5609
22 1 3.57832 23.9055 -25.2557
23 1 3.69129 23.7891 -26.224
24 1 3.76649 23.6208 -27.1195
25 1 3.7981 23.4783 -28.0245
26 1 4.16599 23.1601 -28.8687
27 1 4.74625 23.1108 -29.5504
28 1 5.2029 22.9141 -30.3879
29 1 5.51963 22.148 -30.7948
30 1 5.45794 21.3453 -31.2751
31 1 5.7951 20.5718 -31.6474
32 1 5.63131 19.6724 -31.2143
ITEM: TIMESTEP
3570000
ITEM: NUMBER OF ATOMS
32
ITEM: BOX BOUNDS mm mm mm
-1.6000000000000000e+01 1.6000000000000000e+01
-1.6000000000000000e+01 3.2424197427637779e+01
-3.4936127155008698e+01 1.6000000000000000e+01
ITEM: ATOMS id type x y z
1 1 1.36946 32.4458 -12.3505
2 1 1.44216 31.5565 -12.5853
3 1 1.38499 30.8256 -13.1907
4 1 1.7437 30.1988 -13.7889
5 1 2.197 29.6085 -14.381
6 1 2.06653 29.0417 -15.1073
7 1 1.79105 28.5635 -15.9022
8 1 1.91932 28.4984 -16.8266
9 1 2.27199 28.8084 -17.6151
10 1 2.24304 29.3495 -18.4131
11 1 2.19737 29.7184 -19.2817
12 1 2.3282 29.8446 -20.22
13 1 2.61085 29.9324 -21.0891
14 1 2.5858 29.6172 -21.9567
15 1 2.76014 29.4489 -22.8714
16 1 3.14213 29.3048 -23.6898
17 1 3.54472 29.5598 -24.5347
18 1 4.14422 29.2452 -25.2422
19 1 4.9699 28.9049 -25.5857
20 1 5.90142 28.7746 -25.6076
21 1 6.76165 28.5205 -26.0097
22 1 7.2026 28.8508 -26.7995
23 1 6.86826 29.2699 -27.5392
24 1 6.46863 29.5507 -28.333
25 1 6.03982 29.8663 -29.1712
26 1 6.18067 29.7109 -30.0749
27 1 5.96523 29.4692 -30.9989
28 1 5.74279 29.3517 -31.9481
29 1 5.26713 29.186 -32.7835
30 1 5.37403 29.1936 -33.6833
31 1 5.24631 28.5023 -34.3508
32 1 4.74178 28.0392 -34.9094
ITEM: TIMESTEP
3580000
ITEM: NUMBER OF ATOMS
32
ITEM: BOX BOUNDS mm mm mm
-1.6000000000000000e+01 1.6000000000000000e+01
-1.6000000000000000e+01 2.9747452242925203e+01
-3.1979729954651756e+01 1.6000000000000000e+01
ITEM: ATOMS id type x y z
1 1 -2.02636 27.8992 -16.2093
2 1 -2.10049 28.8462 -16.3696
3 1 -1.505 29.3318 -16.8634
4 1 -0.92021 29.6058 -17.5652
5 1 -0.567932 29.4634 -18.4741
6 1 -0.323473 29.0219 -19.2682
7 1 -0.124544 28.152 -19.3819
8 1 0.239458 27.3801 -19.87
9 1 0.77856 26.8231 -20.3574
10 1 1.61532 26.6578 -20.7443
11 1 2.31492 26.0869 -20.7597
12 1 3.25148 25.8919 -20.8195
13 1 4.04688 26.3129 -21.0801
14 1 4.89174 26.7261 -21.1853
15 1 5.66549 27.0024 -21.572
16 1 6.38027 26.658 -22.0619
17 1 7.16016 26.0982 -21.9284
18 1 7.83331 25.583 -22.2728
19 1 8.61433 25.1517 -22.5726
20 1 9.24175 25.3714 -23.2615
21 1 9.78128 25.167 -23.9635
22 1 10.284 25.0968 -24.7718
23 1 10.5067 24.8165 -25.6981
24 1 10.7067 25.0058 -26.6286
25 1 11.0621 24.8003 -27.4892
26 1 10.5667 25.3588 -28.0862
27 1 10.1366 25.9649 -28.6606
28 1 9.52563 26.2207 -29.263
29 1 8.99056 26.4077 -30.0932
30 1 8.2585 26.0809 -30.5156
31 1 7.51668 25.6757 -30.8796
32 1 6.83379 25.8416 -31.4868
ITEM: TIMESTEP
3590000
ITEM: NUMBER OF ATOMS
32
ITEM: BOX BOUNDS mm mm mm
-1.6000000000000000e+01 1.6000000000000000e+01
-1.6000000000000000e+01 3.5593767133478742e+01
-3.2481333643447563e+01 1.6000000000000000e+01
ITEM: ATOMS id type x y z
1 1 -6.13754 32.8765 -21.0504
2 1 -5.54588 33.1742 -20.3568
3 1 -4.81648 33.4514 -19.7771
4 1 -4.02782 33.8082 -19.4522
5 1 -3.16371 34.0608 -19.7244
6 1 -2.20075 34.3034 -19.6999
7 1 -1.18814 34.3084 -19.8097
8 1 -0.414442 34.2207 -20.2847
9 1 0.235174 34.2538 -20.908
10 1 1.12766 34.2045 -21.2145
11 1 1.80643 34.6799 -21.7087
12 1 2.22511 35.274 -22.2348
13 1 2.73818 35.359 -23.0087
14 1 3.18325 35.1185 -23.824
15 1 3.73605 34.5271 -24.2961
16 1 3.79291 33.7753 -24.8278
17 1 3.89711 33.0075 -25.3635
18 1 4.09957 32.5022 -26.1491
19 1 3.82473 31.9706 -26.9265
20 1 4.01267 31.0567 -27.0531
21 1 4.11758 30.2412 -27.5026
22 1 3.94189 29.3386 -27.7735
23 1 4.3912 28.5586 -28.0509
24 1 4.56576 27.8768 -28.6114
25 1 5.37695 27.5045 -28.8732
26 1 6.17989 27.4215 -29.3539
27 1 7.09235 27.2381 -29.6022
28 1 8.00947 27.2164 -29.6862
29 1 8.61971 26.9657 -30.2869
30 1 9.09629 26.5518 -30.9883
31 1 9.587 26.132 -31.7269
32 1 10.0932 25.7615 -32.4838
ITEM: TIMESTEP
3600000
ITEM: NUMBER OF ATOMS
32
ITEM: BOX BOUNDS mm mm mm
-1.6000000000000000e+01 1.6000000000000000e+01
-1.6000000000000000e+01 3.5658395050430563e+01
-2.8262099181804217e+01 1.6000000000000000e+01
ITEM: ATOMS id type x y z
1 1 -5.61883 35.1183 -19.495
2 1 -5.602 35.2202 -20.4124
3 1 -5.08851 35.1835 -21.198
4 1 -4.14743 35.0457 -21.3768
5 1 -3.23188 34.8771 -21.5771
6 1 -2.66335 35.265 -22.1367
7 1 -2.18376 35.5609 -22.9313
8 1 -1.81581 35.4851 -23.8189
9 1 -1.93954 35.0899 -24.677
10 1 -2.14004 34.8208 -25.5759
11 1 -2.35337 34.8686 -26.4744
12 1 -2.65175 34.2515 -27.1955
13 1 -2.65375 33.4017 -27.569
14 1 -2.44046 32.4968 -27.6824
15 1 -2.25752 31.6871 -27.3109
16 1 -2.43705 31.0459 -26.6384
17 1 -2.14957 30.2131 -26.3483
18 1 -1.71232 29.4019 -26.1672
19 1 -1.22319 28.5808 -26.0703
20 1 -0.423708 28.174 -25.7392
21 1 0.351777 27.9709 -25.2471
22 1 1.25052 27.9329 -25.144
23 1 2.08252 27.7516 -25.6309
24 1 2.94584 27.9154 -25.9824
25 1 3.76961 27.9679 -26.3777
26 1 4.70018 27.9193 -26.2232
27 1 5.52193 28.2519 -26.6282
28 1 6.35912 28.5713 -26.6998
29 1 7.13051 28.9271 -27.2121
30 1 7.88874 29.07 -27.8093
31 1 8.74007 29.0468 -28.0866
32 1 9.54141 29.4764 -28.4223
ITEM: TIMESTEP
3610000
ITEM: NUMBER OF ATOMS
32
ITEM: BOX BOUNDS mm mm mm
-1.6000000000000000e+01 1.6000000000000000e+01
-1.6000000000000000e+01 3.7264133454808643e+01
-2.6469884509384144e+01 1.6000000000000000e+01
ITEM: ATOMS id type x y z
1 1 1.34576 32.3611 -22.9464
2 1 1.91688 33.1347 -22.7866
3 1 2.14846 33.897 -22.2516
4 1 2.17726 34.6479 -21.6189
5 1 1.71732 35.3831 -21.2535
6 1 1.16978 36.0639 -21.4562
7 1 0.787676 36.4362 -22.2082
8 1 0.289614 37.0768 -22.66
9 1 -0.227975 37.2356 -23.39
10 1 -0.707101 37.101 -24.1586
11 1 -0.521524 36.4657 -24.842
12 1 -0.539495 35.7657 -25.4968
13 1 -0.500007 34.9162 -25.9587
14 1 -0.0306215 34.1529 -26.3052
15 1 0.301622 33.2011 -26.3268
16 1 0.3887 32.2475 -26.3519
17 1 0.522094 31.344 -26.4409
18 1 1.01909 30.5589 -26.4641
19 1 1.54735 29.7952 -26.3773
20 1 1.94489 29.2211 -25.7705
21 1 2.07604 29.1436 -24.8666
22 1 2.35255 28.98 -24.006
23 1 2.92396 28.6752 -23.3258
24 1 3.1085 27.7697 -23.1328
25 1 3.29148 26.8812 -22.7402
26 1 3.69462 26.2608 -22.2037
27 1 3.57799 25.389 -21.8778
28 1 3.14335 24.8153 -21.2645
29 1 2.90271 24.1044 -20.7283
30 1 2.31295 24.0827 -19.9693
31 1 1.43373 24.1682 -19.5457
32 1 0.643111 23.7782 -19.2105
ITEM: TIMESTEP
3620000
ITEM: NUMBER OF ATOMS
32
ITEM: BOX BOUNDS mm mm mm
-1.6000000000000000e+01 1.6000000000000000e+01
-1.6000000000000000e+01 3.2346370755419358e+01
-3.0608071848147219e+01 1.6000000000000000e+01
ITEM: ATOMS id type x y z
1 1 -3.41186 32.5405 -22.3271
2 1 -2.84919 32.0994 -21.659
3 1 -2.16307 32.279 -21.083
4 1 -1.38371 31.8496 -21.0192
5 1 -0.51653 31.5199 -20.9874
6 1 0.337841 31.2714 -21.2446
7 1 1.29178 31.1894 -20.9854
8 1 2.19054 31.155 -21.2802
9 1 3.00431 31.3826 -21.727
10 1 3.61794 31.3073 -22.3939
11 1 4.15061 31.1766 -23.1513
12 1 4.7132 31.4678 -23.8173
13 1 5.10606 31.8074 -24.6167
14 1 5.6861 31.9504 -25.3092
15 1 6.33662 31.7633 -26.0215
16 1 7.0009 31.3944 -26.6392
17 1 7.47344 30.6946 -27.0779
18 1 7.9288 29.9735 -27.562
19 1 7.92766 29.3552 -28.3048
20 1 7.61318 29.0456 -29.1166
21 1 7.00904 28.651 -29.6519
22 1 6.46066 28.9934 -30.2596
23 1 5.52102 28.9993 -30.5487
24 1 4.78837 29.0504 -29.9768
25 1 3.95979 28.9839 -30.3838
26 1 2.99255 29.1116 -30.4063
27 1 2.19335 28.6901 -30.1294
28 1 1.38814 28.2393 -30.3919
29 1 0.576616 27.7572 -30.2822
30 1 -0.207127 27.3408 -29.8959
31 1 -1.06602 27.2064 -29.6219
32 1 -1.63341 27.3424 -28.9109
ITEM: TIMESTEP
3630000
ITEM: NUMBER OF ATOMS
32
ITEM: BOX BOUNDS mm mm mm
-1.6000000000000000e+01 1.6000000000000000e+01
-1.6000000000000000e+01 3.5686520566044351e+01
-2.8410111163003791e+01 1.6000000000000000e+01
ITEM: ATOMS id type x y z
1 1 7.84983 34.2953 -21.783
2 1 7.01666 34.8124 -22.0974
3 1 6.27746 35.0184 -22.6792
4 1 5.81356 35.329 -23.4773
5 1 5.60606 35.5983 -24.3476
6 1 5.41415 35.7025 -25.2528
7 1 5.53464 35.5151 -26.1722
8 1 5.49158 35.2045 -27.0356
9 1 5.71075 34.8934 -27.8872
10 1 6.09024 34.1845 -28.4667
11 1 6.16392 33.2226 -28.4066
12 1 6.07815 32.2926 -28.4302
13 1 5.95851 31.3322 -28.2568
14 1 6.10533 30.4239 -27.9886
15 1 5.94714 29.5393 -27.8187
16 1 5.81376 28.6709 -27.4967
17 1 6.04043 27.7902 -27.1606
18 1 6.02707 27.1166 -26.4812
19 1 5.80199 26.2546 -26.2194
20 1 5.21329 25.8704 -25.6063
21 1 4.70409 25.7308 -24.7607
22 1 4.17311 25.9034 -23.999
23 1 3.3779 26.2975 -23.545
24 1 2.60692 26.7252 -23.2105
25 1 1.68239 27.0813 -23.2308
26 1 1.00982 27.6877 -23.5506
27 1 0.325819 28.331 -23.5025
28 1 -0.536075 28.8612 -23.4235
29 1 -1.44279 28.7086 -23.3117
30 1 -2.36584 28.4884 -23.2422
31 1 -3.25486 28.4133 -23.3379
32 1 -4.14881 28.2962 -23.0368
ITEM: TIMESTEP
3640000
ITEM: NUMBER OF ATOMS
32
ITEM: BOX BOUNDS mm mm mm
-1.6000000000000000e+01 1.6000000000000000e+01
-1.6000000000000000e+01 3.5042037203991676e+01
-3.2314617442081996e+01 1.6000000000000000e+01
ITEM: ATOMS id type x y z
1 1 15.4315 33.9841 -19.4744
2 1 14.7773 34.3785 -19.9678
3 1 14.2071 34.6212 -20.7003
4 1 13.6634 35.105 -21.2514
5 1 12.9308 35.023 -21.784
6 1 12.2327 34.8411 -22.3632
7 1 11.9564 34.3254 -23.0869
8 1 11.2656 33.7437 -23.4114
9 1 11.0369 33.1616 -24.0802
10 1 10.9302 32.5793 -24.7659
11 1 10.6753 31.8989 -25.4154
12 1 10.5191 31.1129 -26.0545
13 1 10.7923 30.5206 -26.8009
14 1 10.2973 29.8638 -27.2882
15 1 10.2465 28.936 -27.0819
16 1 9.78831 28.1586 -26.7666
17 1 9.40357 27.3441 -26.9373
18 1 9.22964 26.4738 -27.2738
19 1 8.99399 25.7075 -27.7772
20 1 8.84861 25.342 -28.6599
21 1 8.72693 24.656 -29.2606
22 1 8.22311 24.1717 -29.9029
23 1 7.73974 23.7922 -30.5998
24 1 6.92199 23.4139 -30.9522
25 1 6.3128 22.6735 -31.2188
26 1 5.36146 22.4268 -31.4132
27 1 4.51838 22.1513 -31.6894
28 1 3.65532 21.9392 -32.0787
29 1 2.87795 21.4436 -32.2217
30 1 2.23513 20.7897 -32.0873
31 1 1.43979 20.3066 -31.8946
32 1 0.893993 19.5322 -31.8468
ITEM: TIMESTEP
3650000
ITEM: NUMBER OF ATOMS
32
ITEM: BOX BOUNDS mm mm mm
-1.6000000000000000e+01 1.6000000000000000e+01
-1.6000000000000000e+01 3.4532972105222228e+01
-2.7515215659566621e+01 1.6000000000000000e+01
ITEM: ATOMS id type x y z
1 1 10.1092 35.1214 -26.6835
2 1 10.2495 34.3687 -26.1156
3 1 10.3795 33.7524 -25.4523
4 1 10.4525 32.8475 -25.2408
5 1 10.1521 31.9265 -25.0253
6 1 9.89866 30.9687 -25.164
7 1 10.0451 30.0535 -25.2564
8 1 10.4568 29.2644 -25.1034
9 1 10.7524 28.3885 -25.0008
10 1 11.146 27.5755 -25.1798
11 1 11.1981 26.6165 -25.4138
12 1 11.5217 25.6959 -25.3631
13 1 12.0152 24.9437 -25.0559
14 1 12.4171 24.1685 -24.6836
15 1 12.5114 23.2013 -24.7515
16 1 12.8586 22.3395 -24.7981
17 1 12.7209 21.4783 -25.1845
18 1 12.4295 20.5995 -25.4316
19 1 11.7834 19.9661 -25.6377
20 1 11.1354 19.8098 -26.28
21 1 10.9032 19.434 -27.0649
22 1 10.1157 18.9993 -27.0038
23 1 9.34518 18.4978 -27.1774
24 1 8.78739 17.7828 -27.1133
25 1 8.03397 17.283 -27.3855
26 1 7.18869 17.0229 -27.245
27 1 6.32449 17.0947 -26.9007
28 1 5.59494 17.7341 -26.7098
29 1 4.81943 17.5953 -27.2515
30 1 3.90904 17.4772 -27.1589
31 1 2.99847 17.5983 -26.876
32 1 2.3409 18.181 -27.2002
ITEM: TIMESTEP
3660000
ITEM: NUMBER OF ATOMS
32
ITEM: BOX BOUNDS mm mm mm
-1.6000000000000000e+01 1.6000000000000000e+01
-1.6000000000000000e+01 3.3912485884203484e+01
-3.2447427770183971e+01 1.6000000000000000e+01
ITEM: ATOMS id type x y z
1 1 15.0529 33.8977 -32.387
2 1 14.2471 33.4089 -32.575
3 1 13.5272 32.8446 -32.2438
4 1 13.2307 32.3096 -31.4978
5 1 13.217 31.4037 -31.2419
6 1 12.8063 30.5707 -31.1559
7 1 12.6861 29.7368 -30.6959
8 1 12.7482 29.0477 -30.1014
9 1 12.9629 28.3248 -29.6365
10 1 12.7428 27.6307 -29.0572
11 1 11.986 27.2476 -28.5917
12 1 11.1887 26.8527 -28.2
13 1 10.5574 26.5787 -27.6024
14 1 10.0019 26.1059 -27.0057
15 1 9.39722 25.4969 -26.5959
16 1 8.55887 25.2895 -26.2057
17 1 8.09411 24.4499 -25.9912
18 1 7.66161 23.7763 -25.4368
19 1 7.235 23.0329 -24.9512
20 1 6.77578 22.7448 -24.2128
21 1 6.43207 22.1789 -23.5848
22 1 6.12126 21.3952 -23.329
23 1 6.24662 20.6927 -22.6771
24 1 6.32799 19.768 -22.4384
25 1 6.06647 18.8688 -22.5496
26 1 5.64864 18.011 -22.5633
27 1 5.15109 17.1995 -22.5363
28 1 4.70229 16.3041 -22.5114
29 1 4.09744 15.5991 -22.4676
30 1 3.50199 14.8311 -22.787
31 1 3.32649 14.0426 -23.2165
32 1 3.32397 13.4579 -23.9868
ITEM: TIMESTEP
3670000
ITEM: NUMBER OF ATOMS
32
ITEM: BOX BOUNDS mm mm mm
-1.6000000000000000e+01 2.1509127308636696e+01
-1.6000000000000000e+01 2.7319678389927912e+01
-2.7175284403731158e+01 1.6000000000000000e+01
ITEM: ATOMS id type x y z
1 1 21.9122 21.4147 -26.8849
2 1 21.035 21.5726 -26.6511
3 1 20.2053 21.7203 -26.1737
4 1 19.7766 22.3272 -25.6373
5 1 19.2077 23.0289 -25.364
6 1 18.7102 23.4373 -24.5936
7 1 18.1162 23.9047 -24.0236
8 1 17.5534 24.4487 -23.4385
9 1 17.3779 25.1356 -22.8122
10 1 17.2219 25.7996 -22.2022
11 1 16.7052 26.059 -21.4601
12 1 16.0173 26.6124 -21.1125
13 1 15.1292 26.487 -20.8393
14 1 14.3665 26.8585 -20.5585
15 1 13.8158 26.9198 -19.77
16 1 13.1451 27.1711 -19.2024
17 1 12.522 27.3634 -18.4764
18 1 11.674 27.2039 -18.0894
19 1 11.0081 26.6809 -17.6872
20 1 10.4227 25.9037 -17.6584
21 1 9.69263 25.3387 -17.6022
22 1 8.69358 25.251 -17.4243
23 1 7.83644 25.4686 -17.7064
24 1 6.87049 25.4089 -17.6344
25 1 6.03908 25.7108 -17.2803
26 1 5.38079 26.1019 -16.7508
27 1 4.87372 26.1454 -15.9867
28 1 4.32107 25.5394 -15.4508
29 1 3.70628 25.3565 -14.7987
30 1 3.28027 24.9602 -14.0449
31 1 3.41979 24.0276 -13.8418
32 1 3.56453 23.1362 -14.1191
ITEM: TIMESTEP
3680000
ITEM: NUMBER OF ATOMS
32
ITEM: BOX BOUNDS mm mm mm
-1.6000000000000000e+01 2.0039933559761018e+01
-1.6000000000000000e+01 2.8761967998477772e+01
-2.5908017602775640e+01 1.6000000000000000e+01
ITEM: ATOMS id type x y z
1 1 19.2572 28.7752 -26.6106
2 1 19.4544 27.9425 -26.3297
3 1 19.6542 27.4886 -25.5509
4 1 19.6545 26.892 -24.7923
5 1 19.8702 26.1119 -24.2848
6 1 19.7502 25.4127 -23.6604
7 1 19.7324 24.6047 -23.1149
8 1 19.2079 23.8389 -22.7488
9 1 18.2788 23.7054 -22.7627
10 1 17.3669 23.6258 -23.021
11 1 16.4825 23.3636 -23.2713
12 1 15.6324 23.3116 -23.6504
13 1 14.7277 23.3534 -23.6795
14 1 13.8117 23.3448 -23.5256
15 1 13.1117 23.7217 -24.0513
16 1 12.3036 24.1869 -24.0131
17 1 11.5779 24.8328 -24.1324
18 1 10.7798 25.2195 -23.8649
19 1 10.2506 24.4567 -23.7862
20 1 9.7217 23.6797 -23.8111
21 1 9.13122 22.9615 -23.6579
22 1 9.13992 22.3307 -22.9717
23 1 9.0455 21.912 -22.18
24 1 8.9387 21.3808 -21.4472
25 1 8.096 21.3629 -21.0474
26 1 7.46352 21.8833 -20.6469
27 1 6.49376 22.0594 -20.4924
28 1 5.56605 22.114 -20.5101
29 1 4.67027 21.8983 -20.8117
30 1 3.93198 21.5906 -21.2124
31 1 3.10948 21.1958 -21.5648
32 1 2.21495 21.0141 -21.9025
ITEM: TIMESTEP
3690000
ITEM: NUMBER OF ATOMS
32
ITEM: BOX BOUNDS mm mm mm
-1.6000000000000000e+01 2.8343777619183246e+01
-1.6000000000000000e+01 2.8244884089292636e+01
-2.2480245850280085e+01 1.6000000000000000e+01
ITEM: ATOMS id type x y z
1 1 28.9314 26.1839 -22.1999
2 1 28.0841 26.3758 -21.7143
3 1 27.2849 26.6787 -21.4527
4 1 26.3909 26.9664 -21.4457
5 1 25.5314 27.3408 -21.6432
6 1 24.9867 28.104 -21.8032
7 1 24.1088 28.4939 -21.6353
8 1 23.2084 28.4047 -21.5596
9 1 22.6005 28.2329 -20.8318
10 1 22.3026 28.2665 -19.9712
11 1 22.0599 28.0035 -19.0853
12 1 21.5284 27.7488 -18.3372
13 1 20.9446 27.3767 -17.6278
14 1 20.045 27.0589 -17.5938
15 1 19.1164 26.8759 -17.7487
16 1 18.258 26.495 -17.7206
17 1 17.7482 25.6702 -17.9528
18 1 17.187 24.9345 -18.1934
19 1 16.5475 24.5259 -18.7403
20 1 15.791 24.1206 -19.0462
21 1 15.1139 23.7436 -19.5677
22 1 14.2322 23.728 -19.973
23 1 13.3517 23.7809 -20.4094
24 1 12.381 23.8049 -20.4979
25 1 11.4251 23.7848 -20.3736
26 1 10.5652 24.2058 -20.3451
27 1 10.1386 24.5272 -19.5554
28 1 9.25119 24.4224 -19.2175
29 1 8.62529 23.8383 -18.7558
30 1 8.78527 23.2887 -18.0182
31 1 8.90316 22.9498 -17.1574
32 1 8.83396 23.134 -16.2262
ITEM: TIMESTEP
3700000
ITEM: NUMBER OF ATOMS
32
ITEM: BOX BOUNDS mm mm mm
-1.6000000000000000e+01 2.0654015413821341e+01
-1.6000000000000000e+01 3.0042477084187361e+01
-2.5396000807757520e+01 1.6000000000000000e+01
ITEM: ATOMS id type x y z
1 1 19.2363 29.4218 -18.1292
2 1 19.1313 29.498 -19.0571
3 1 18.9631 29.437 -19.9748
4 1 19.1388 29.4276 -20.8652
5 1 19.6805 29.2745 -21.7183
6 1 20.4196 28.8959 -22.1569
7 1 20.9063 28.3988 -22.8117
8 1 21.119 27.7335 -23.4809
9 1 21.1897 27.2451 -24.2752
10 1 20.707 26.6511 -24.851
11 1 20.4402 25.8301 -25.2531
12 1 19.8798 25.1281 -25.384
13 1 19.4569 24.3767 -24.9589
14 1 18.9888 23.8203 -24.4605
15 1 18.7272 23.282 -23.7072
16 1 18.2638 23.0305 -22.9345
17 1 18.1713 23.1065 -22.024
18 1 17.7451 23.0029 -21.1261
19 1 17.4562 22.6668 -20.25
20 1 17.1711 22.0834 -19.5813
21 1 17.1109 21.2524 -19.1059
22 1 16.4508 20.6345 -18.8301
23 1 16.211 19.7901 -18.5648
24 1 15.4687 19.374 -18.2155
25 1 14.5844 19.0333 -18.2954
26 1 13.726 19.3201 -18.5677
27 1 12.8039 19.292 -18.6386
28 1 11.9706 19.454 -19.0098
29 1 11.4108 19.958 -19.5105
30 1 11.002 20.4946 -20.105
31 1 10.8303 21.2754 -20.6697
32 1 10.472 22.1135 -20.821
ITEM: TIMESTEP
3710000
ITEM: NUMBER OF ATOMS
32
ITEM: BOX BOUNDS mm mm mm
-1.6000000000000000e+01 2.7890651858540540e+01
-1.6000000000000000e+01 3.1722142938544831e+01
-2.7036621565755926e+01 1.6000000000000000e+01
ITEM: ATOMS id type x y z
1 1 27.8139 32.0701 -26.4896
2 1 27.1274 31.4587 -26.5739
3 1 26.3596 30.9109 -26.6092
4 1 25.5985 30.5066 -26.2743
5 1 24.76 30.433 -25.9028
6 1 23.8984 30.1958 -25.5636
7 1 23.1079 29.6621 -25.4337
8 1 22.5757 28.9153 -25.6076
9 1 22.2638 28.0872 -25.9118
10 1 22.02 27.1403 -25.9595
11 1 21.9027 26.2508 -25.7011
12 1 21.0729 25.7642 -25.5838
13 1 20.2086 25.3137 -25.5064
14 1 19.3856 24.8158 -25.5613
15 1 18.4593 24.8473 -25.4655
16 1 17.5079 25.046 -25.261
17 1 16.8589 24.6189 -24.7317
18 1 16.399 24.2315 -24.0334
19 1 16.3113 23.2987 -23.7415
20 1 15.9128 22.6548 -23.1542
21 1 15.5322 22.3657 -22.3106
22 1 15.0257 22.4911 -21.536
23 1 14.4469 22.5847 -20.6357
24 1 13.6014 22.696 -20.2277
25 1 12.6747 22.6063 -20.533
26 1 11.7671 22.7125 -20.8046
27 1 10.8471 22.848 -20.9606
28 1 10.0253 23.2842 -21.0173
29 1 9.5455 24.1541 -20.9333
30 1 9.55163 25.0169 -20.5496
31 1 9.78037 25.9596 -20.4172
32 1 9.74511 26.8865 -20.265
ITEM: TIMESTEP
3720000
ITEM: NUMBER OF ATOMS
32
ITEM: BOX BOUNDS mm mm mm
-1.6000000000000000e+01 2.6238541085681256e+01
-1.6000000000000000e+01 2.9259808038917583e+01
-3.1928882345101147e+01 1.6000000000000000e+01
ITEM: ATOMS id type x y z
1 1 25.9836 29.2879 -31.9444
2 1 25.2545 29.5503 -31.4504
3 1 24.7797 28.9185 -30.9294
4 1 24.0614 28.3751 -30.6651
5 1 23.3288 27.7465 -30.8382
6 1 22.698 27.1062 -30.6072
7 1 21.8771 26.7903 -30.3184
8 1 21.0607 26.4302 -29.9842
9 1 20.572 25.8605 -29.4528
10 1 19.8709 25.5554 -28.8736
11 1 19.2598 25.6046 -28.1388
12 1 19.1779 25.514 -27.1943
13 1 18.6876 25.1574 -26.4576
14 1 18.3041 24.8365 -25.677
15 1 18.612 24.6821 -24.7929
16 1 19.3602 24.5605 -24.1927
17 1 19.9841 24.1298 -23.6219
18 1 20.2631 24.2507 -22.6849
19 1 20.1036 23.9398 -21.8278
20 1 20.2723 23.6194 -20.9845
21 1 20.4923 23.4331 -20.0748
22 1 20.1126 23.1665 -19.2127
23 1 19.3282 22.6475 -18.8064
24 1 18.7908 22.0232 -18.4217
25 1 18.0197 21.7061 -18.0024
26 1 17.1051 21.5587 -17.9244
27 1 16.1911 21.2752 -18.0352
28 1 15.5232 20.5675 -17.9106
29 1 14.6364 20.4248 -17.7778
30 1 13.8013 20.7649 -17.5323
31 1 13.5489 21.6468 -17.4331
32 1 13.4871 22.5372 -17.0437
ITEM: TIMESTEP
3730000
ITEM: NUMBER OF ATOMS
32
ITEM: BOX BOUNDS mm mm mm
-1.6000000000000000e+01 2.0369981080369765e+01
-1.6000000000000000e+01 2.6383077158024811e+01
-3.3993388750977751e+01 1.6000000000000000e+01
ITEM: ATOMS id type x y z
1 1 20.2454 26.3909 -34.3721
2 1 20.2868 25.5042 -33.8525