ITEM: TIMESTEP
810000
ITEM: NUMBER OF ATOMS
32
ITEM: BOX BOUNDS mm mm mm
-1.6000000000000000e+01 1.6000000000000000e+01
-1.6000000000000000e+01 4.3529401717381447e+01
-1.6000000000000000e+01 1.6000000000000000e+01
ITEM: ATOMS id type x y z
1 1 11.6328 43.5262 -0.495011
2 1 11.2687 42.7557 -0.799568
3 1 11.8412 42.1154 -1.059
4 1 12.1769 41.279 -1.11699
5 1 12.0492 40.3339 -1.06654
6 1 11.4351 39.6365 -1.04015
7 1 10.8815 38.9965 -0.693145
8 1 11.7416 38.5859 -0.767239
9 1 12.4389 37.9921 -0.45178
10 1 11.7768 37.3438 -0.190284
11 1 11.0773 36.9222 0.292257
12 1 10.3173 36.2988 0.270465
13 1 9.36693 36.1846 0.138158
14 1 8.97426 35.3785 -0.0685276
15 1 8.14853 35.4474 -0.486404
16 1 7.84915 35.7951 -1.31045
17 1 7.92732 35.8015 -2.2583
18 1 7.99454 35.4755 -3.1839
19 1 7.7385 35.7147 -4.04303
20 1 8.09283 36.5943 -3.938
21 1 7.30668 37.0152 -4.14622
22 1 6.78626 37.6228 -4.58895
23 1 6.14202 38.0303 -5.06161
24 1 5.35494 38.2507 -5.52157
25 1 5.439 37.3623 -5.34993
26 1 5.45962 36.6497 -5.96705
27 1 5.25441 35.8474 -6.47447
28 1 4.66899 35.5965 -7.21381
29 1 4.2916 35.0815 -7.87825
30 1 3.70309 34.7838 -8.62532
31 1 3.67276 33.7847 -8.74932
32 1 2.92773 33.2307 -8.74011
ITEM: TIMESTEP
820000
ITEM: NUMBER OF ATOMS
32
ITEM: BOX BOUNDS mm mm mm
-1.6000000000000000e+01 1.6000000000000000e+01
-1.6000000000000000e+01 3.5428225046880698e+01
-1.6000000000000000e+01 1.6000000000000000e+01
ITEM: ATOMS id type x y z
1 1 11.5446 34.9779 -0.728784
2 1 12.2442 34.3387 -0.558679
3 1 12.5857 33.5865 -0.229843
4 1 12.5296 32.6387 0.132633
5 1 12.2767 31.7818 0.135716
6 1 11.5714 31.9989 -0.387131
7 1 10.969 32.4339 -0.956727
8 1 10.4738 32.8489 -0.240565
9 1 9.96767 33.0615 0.576313
10 1 9.5211 33.8596 0.452123
11 1 8.81328 34.4235 0.653823
12 1 7.95083 34.9047 0.69375
13 1 7.39297 35.3766 0.172882
14 1 7.05706 34.6506 -0.275481
15 1 6.79261 33.8683 -0.801782
16 1 6.4652 32.9774 -0.916988
17 1 6.15331 32.545 -1.68304
18 1 5.89098 32.893 -2.54098
19 1 5.94604 33.0299 -3.46913
20 1 6.28012 33.7077 -4.03058
21 1 7.14819 33.7244 -3.92594
22 1 8.07005 33.548 -3.73148
23 1 8.41171 33.2346 -4.5465
24 1 8.91957 33.273 -5.338
25 1 9.34969 32.587 -5.8587
26 1 9.83762 31.9182 -5.3662
27 1 10.6103 32.468 -5.24944
28 1 11.381 32.5978 -5.75243
29 1 11.6698 33.0611 -6.45939
30 1 11.5616 33.6909 -7.10864
31 1 12.0647 34.4732 -6.81363
32 1 11.5288 35.2628 -6.85125
ITEM: TIMESTEP
830000
ITEM: NUMBER OF ATOMS
32
ITEM: BOX BOUNDS mm mm mm
-1.6000000000000000e+01 1.6000000000000000e+01
-1.6000000000000000e+01 3.5528890076864741e+01
-1.6000000000000000e+01 1.6000000000000000e+01
ITEM: ATOMS id type x y z
1 1 9.67385 34.0514 7.1656
2 1 9.14611 33.3798 6.98137
3 1 8.33171 33.0156 6.7294
4 1 7.84835 32.3163 6.42452
5 1 7.5071 31.698 5.8076
6 1 6.6585 31.8397 5.41409
7 1 5.96534 32.3781 5.03695
8 1 5.27086 32.6733 4.46739
9 1 4.64278 31.9447 4.73009
10 1 5.17093 31.6843 4.01618
11 1 4.98875 31.9366 3.1265
12 1 4.5456 32.7886 2.95275
13 1 5.35584 33.2834 2.79514
14 1 5.79619 33.6112 2.0035
15 1 5.67218 34.5396 1.82043
16 1 5.09834 35.1709 2.18252
17 1 4.29645 35.4928 1.77929
18 1 3.58845 35.4461 1.10893
19 1 3.22993 35.127 0.322701
20 1 3.53386 34.5488 -0.410262
21 1 3.83234 33.7936 -0.85772
22 1 3.99999 33.0726 -1.46774
23 1 4.28303 32.1776 -1.48575
24 1 4.84512 31.7284 -0.756019
25 1 4.8085 30.8367 -0.385305
26 1 4.28009 30.5481 0.365375
27 1 5.09889 30.9078 0.555484
28 1 5.87344 31.3141 0.90358
29 1 6.47672 31.9397 0.457329
30 1 6.71287 32.8582 0.293172
31 1 7.14563 33.6074 0.531085
32 1 7.5438 34.0619 1.2437
ITEM: TIMESTEP
840000
ITEM: NUMBER OF ATOMS
32
ITEM: BOX BOUNDS mm mm mm
-1.6000000000000000e+01 1.6000000000000000e+01
-1.6000000000000000e+01 3.8750964111089459e+01
-1.6000000000000000e+01 1.6000000000000000e+01
ITEM: ATOMS id type x y z
1 1 3.74024 39.1142 -2.31226
2 1 3.76574 38.1587 -2.41193
3 1 3.17911 37.445 -2.36504
4 1 2.83788 36.687 -1.98598
5 1 2.23832 36.1397 -1.55791
6 1 1.31266 36.2697 -1.48672
7 1 0.447813 35.9176 -1.28256
8 1 -0.189676 35.2048 -1.30821
9 1 0.684548 34.8019 -1.21948
10 1 1.0691 34.0039 -1.39164
11 1 0.219481 33.6483 -0.976938
12 1 -0.40424 34.0766 -1.5965
13 1 -0.625492 34.2252 -2.51683
14 1 -0.586097 33.613 -3.26687
15 1 -0.202397 32.8466 -2.87403
16 1 0.399791 32.8868 -3.60062
17 1 1.14005 33.1585 -4.11184
18 1 1.54717 32.5326 -4.68859
19 1 2.08733 31.9268 -5.15696
20 1 2.5076 31.6214 -5.95927
21 1 1.96216 31.2486 -6.59494
22 1 1.62413 31.1685 -7.4895
23 1 1.88338 31.9834 -7.90311
24 1 1.98066 32.687 -8.53447
25 1 1.403 33.1197 -9.1453
26 1 1.71558 33.7294 -9.77076
27 1 2.18617 34.5115 -9.58181
28 1 2.32691 35.2306 -10.1585
29 1 2.87092 35.817 -10.6335
30 1 2.88192 36.7144 -10.3986
31 1 3.52323 37.3251 -10.7022
32 1 4.14324 37.9432 -10.3721
ITEM: TIMESTEP
850000
ITEM: NUMBER OF ATOMS
32
ITEM: BOX BOUNDS mm mm mm
-1.6000000000000000e+01 1.6000000000000000e+01
-1.6000000000000000e+01 3.4753390630390832e+01
-1.6000000000000000e+01 1.6000000000000000e+01
ITEM: ATOMS id type x y z
1 1 -3.33185 34.009 1.54973
2 1 -2.56469 33.7316 1.03976
3 1 -1.90113 33.1829 0.706037
4 1 -1.38452 33.8739 0.24863
5 1 -0.753438 33.4293 -0.398936
6 1 -0.219254 32.6512 -0.561892
7 1 -0.250938 32.4392 -1.46952
8 1 -0.131492 33.1144 -2.06683
9 1 0.538105 33.2515 -2.74531
10 1 1.28807 33.5776 -3.27376
11 1 1.85746 33.5854 -2.51217
12 1 1.85353 32.945 -1.85223
13 1 2.51358 32.4705 -1.36769
14 1 3.35285 32 -1.44145
15 1 3.61848 31.4257 -2.10207
16 1 4.06088 31.5796 -2.9291
17 1 3.85868 31.6221 -3.83087
18 1 4.04738 31.7661 -4.73091
19 1 4.95135 32.0863 -4.84655
20 1 5.7871 32.1397 -5.29674
21 1 6.53897 31.9959 -5.94194
22 1 6.63742 31.7739 -6.86434
23 1 6.06656 31.6243 -7.5843
24 1 5.76795 31.7394 -8.49269
25 1 5.05946 31.6442 -9.11812
26 1 4.11757 31.5531 -9.30979
27 1 3.37357 31.459 -9.91714
28 1 3.03178 31.711 -9.04723
29 1 2.81916 32.6376 -9.0559
30 1 2.06651 33.1863 -9.28446
31 1 1.44559 33.8029 -9.51753
32 1 0.90458 34.6051 -9.67334
ITEM: TIMESTEP
860000
ITEM: NUMBER OF ATOMS
32
ITEM: BOX BOUNDS mm mm mm
-1.6000000000000000e+01 1.6000000000000000e+01
-1.6000000000000000e+01 3.3323486388596933e+01
-1.6000000000000000e+01 1.6000000000000000e+01
ITEM: ATOMS id type x y z
1 1 6.05315 33.487 8.20541
2 1 6.68837 33.1246 7.60088
3 1 7.60687 33.1868 7.3824
4 1 8.2348 32.9529 6.75741
5 1 8.741 32.1634 6.69594
6 1 9.60058 31.6948 6.64241
7 1 10.165 30.8993 6.71185
8 1 9.57366 30.2929 6.22266
9 1 8.85855 30.4647 5.66435
10 1 8.28088 30.4063 4.88479
11 1 7.61246 30.201 4.26339
12 1 7.24868 29.3509 4.44589
13 1 7.13793 29.1264 3.55238
14 1 7.81518 29.1127 2.83997
15 1 8.56217 29.6348 2.60072
16 1 8.35502 30.3251 2.01042
17 1 8.07153 30.6353 1.12888
18 1 7.48366 31.3148 0.542778
19 1 7.09057 31.9167 -0.0808079
20 1 7.22338 32.3923 -0.881651
21 1 7.6561 32.7068 -1.62494
22 1 8.14589 32.1296 -2.21692
23 1 8.71027 31.7039 -2.8227
24 1 9.53644 31.5699 -3.22305
25 1 9.6006 31.3606 -4.1728
26 1 9.01643 31.4278 -4.92645
27 1 9.55388 30.7613 -5.26958
28 1 9.8808 29.9079 -5.42077
29 1 9.34764 29.242 -4.94828
30 1 8.67103 29.4821 -4.35844
31 1 8.34175 29.9779 -3.68912
32 1 7.69139 30.6764 -3.93949
ITEM: TIMESTEP
870000
ITEM: NUMBER OF ATOMS
32
ITEM: BOX BOUNDS mm mm mm
-1.6000000000000000e+01 1.6000000000000000e+01
-1.6000000000000000e+01 3.1235758097798232e+01
-1.6000000000000000e+01 1.6000000000000000e+01
ITEM: ATOMS id type x y z
1 1 2.39442 30.7339 -1.78848
2 1 2.04166 31.1931 -1.03339
3 1 2.92013 30.9416 -0.837187
4 1 3.56772 30.5691 -0.237106
5 1 3.78443 30.1042 0.556197
6 1 4.34828 30.2091 1.26774
7 1 5.22052 30.027 1.01179
8 1 5.7586 29.7498 1.75995
9 1 6.34821 29.9533 2.43265
10 1 7.09774 30.2894 2.83773
11 1 7.77273 30.4621 3.56764
12 1 8.34051 29.7468 3.7279
13 1 8.64717 29.8904 2.84226
14 1 9.19933 29.8195 2.10459
15 1 10.0913 29.5338 2.05059
16 1 10.7773 29.3672 1.44571
17 1 10.0747 29.8563 0.986616
18 1 9.52859 30.4086 0.457879
19 1 8.77581 30.038 0.059376
20 1 8.31107 29.2537 -0.262737
21 1 8.339 28.6984 -1.05729
22 1 9.0155 28.161 -1.46457
23 1 9.39697 28.3934 -2.29874
24 1 9.93515 28.519 -3.02303
25 1 10.2699 28.7646 -3.85799
26 1 10.3223 28.1406 -4.56357
27 1 10.5266 28.0803 -5.50495
28 1 11.3151 28.5752 -5.70414
29 1 11.6231 29.114 -6.40903
30 1 11.8318 29.8958 -5.79443
31 1 12.2453 30.5189 -5.26212
32 1 12.461 31.1904 -4.63347
ITEM: TIMESTEP
880000
ITEM: NUMBER OF ATOMS
32
ITEM: BOX BOUNDS mm mm mm
-1.6000000000000000e+01 1.6000000000000000e+01
-1.6000000000000000e+01 3.3747174538264389e+01
-1.6000000000000000e+01 1.6000000000000000e+01
ITEM: ATOMS id type x y z
1 1 5.75142 33.6854 2.132
2 1 5.13701 33.2356 2.59182
3 1 5.16857 32.5156 1.99843
4 1 5.26553 31.8157 1.40475
5 1 6.14904 31.4804 1.47502
6 1 6.95938 31.1729 1.84867
7 1 7.74581 31.626 1.85102
8 1 8.20413 30.9027 1.55312
9 1 7.61247 30.7651 0.812134
10 1 7.6777 29.9146 0.397855
11 1 7.84869 29.0742 -0.145003
12 1 7.29344 28.3706 -0.0795857
13 1 7.54895 27.9068 -0.931814
14 1 8.22921 27.8616 -1.53834
15 1 8.32094 26.9743 -2.06342
16 1 8.33583 26.3883 -2.77981
17 1 8.00295 25.6234 -3.19476
18 1 7.13197 25.642 -3.50908
19 1 6.74404 26.2975 -4.04653
20 1 6.44713 26.0092 -4.90171
21 1 5.85763 26.5819 -5.27289
22 1 5.81407 27.5072 -5.27816
23 1 5.28144 27.3729 -6.06868
24 1 5.24505 27.0402 -6.90213
25 1 6.05038 27.4844 -6.95528
26 1 6.19219 28.3269 -6.58704
27 1 6.24955 29.2487 -6.79659
28 1 6.95705 29.8033 -7.10645
29 1 7.87003 29.5535 -7.25445
30 1 8.76274 29.6731 -7.00907
31 1 9.11445 29.4171 -7.86837
32 1 9.9544 29.2214 -8.30587
ITEM: TIMESTEP
890000
ITEM: NUMBER OF ATOMS
32
ITEM: BOX BOUNDS mm mm mm
-1.6000000000000000e+01 1.6000000000000000e+01
-1.6000000000000000e+01 3.1755974750621650e+01
-1.6000000000000000e+01 1.6000000000000000e+01
ITEM: ATOMS id type x y z
1 1 3.81077 31.1113 7.89168
2 1 3.76622 31.7983 7.24586
3 1 4.29675 32.0658 6.51707
4 1 4.40212 31.196 6.2345
5 1 5.33611 31.0989 6.42133
6 1 6.23061 30.9202 6.60374
7 1 6.89309 30.3117 6.34713
8 1 7.06872 29.9225 5.54807
9 1 7.82838 29.9384 4.86811
10 1 7.86278 29.2718 4.22482
11 1 7.57052 29.1736 3.33916
12 1 6.78033 29.2895 2.80869
13 1 6.55873 29.6669 1.95602
14 1 7.17609 30.3693 1.85432
15 1 7.66226 31.0075 1.33689
16 1 7.74415 30.5099 0.57891
17 1 7.24703 29.7063 0.618363
18 1 6.76301 28.9158 0.251527
19 1 7.09682 28.0656 0.50848
20 1 7.61693 27.3197 0.32206
21 1 8.39876 26.7777 0.223187
22 1 8.1795 25.969 0.689013
23 1 7.5955 25.4499 0.130451
24 1 6.81955 25.3586 -0.34883
25 1 5.87164 25.3703 -0.437278
26 1 5.04663 25.7698 -0.233408
27 1 4.16229 26.072 -0.150444
28 1 3.36522 26.3762 0.133074
29 1 2.71452 25.8813 0.670814
30 1 1.99708 25.4366 1.05028
31 1 1.86703 24.5579 0.770033
32 1 2.2848 23.9682 0.167241
ITEM: TIMESTEP
900000
ITEM: NUMBER OF ATOMS
32
ITEM: BOX BOUNDS mm mm mm
-1.6000000000000000e+01 1.6000000000000000e+01
-1.6000000000000000e+01 3.5618986293323701e+01
-1.6000000000000000e+01 1.6000000000000000e+01
ITEM: ATOMS id type x y z
1 1 9.15326 34.0788 6.90778
2 1 9.14626 34.941 7.1913
3 1 9.37925 35.5313 6.47045
4 1 10.1578 35.2731 6.04681
5 1 10.4108 34.8299 5.26901
6 1 10.946 35.203 4.59391
7 1 11.6815 35.1123 4.07315
8 1 11.7216 34.534 3.34099
9 1 11.008 33.9999 3.06067
10 1 10.1951 33.7559 2.69151
11 1 10.1213 33.1416 1.99861
12 1 9.87094 32.9573 1.08918
13 1 9.43875 32.3618 0.547078
14 1 8.47984 32.4546 0.570322
15 1 7.59485 32.1466 0.586259
16 1 7.30167 32.3379 -0.295486
17 1 7.45775 31.6511 -0.898926
18 1 7.04477 31.5066 -1.78876
19 1 6.88169 30.588 -1.77486
20 1 6.52409 29.7705 -1.87309
21 1 6.41886 29.1313 -2.56388
22 1 6.64717 28.2647 -2.37855
23 1 6.73777 27.3321 -2.26351
24 1 7.22932 26.8686 -1.57386
25 1 7.56405 26.3424 -0.900744
26 1 8.22336 26.2204 -0.202917
27 1 8.86591 26.7087 0.280056
28 1 9.80934 26.8519 0.110774
29 1 10.5334 27.1974 0.656592
30 1 11.2971 27.5988 1.03069
31 1 11.9841 27.9818 0.5088
32 1 12.4458 28.783 0.343127
ITEM: TIMESTEP
910000
ITEM: NUMBER OF ATOMS
32
ITEM: BOX BOUNDS mm mm mm
-1.6000000000000000e+01 1.6000000000000000e+01
-1.6000000000000000e+01 3.4793644226027475e+01
-1.6000000000000000e+01 1.6000000000000000e+01
ITEM: ATOMS id type x y z
1 1 10.4155 32.7738 2.74537
2 1 10.4491 32.2545 1.92088
3 1 10.0076 31.3987 1.86773
4 1 9.48838 31.4782 1.08719
5 1 9.31648 32.3255 0.786519
6 1 8.88833 33.0657 0.506871
7 1 8.97938 33.7233 -0.202784
8 1 8.50651 34.3068 -0.869016
9 1 7.92624 34.1961 -1.61024
10 1 7.79745 33.2482 -1.51241
11 1 7.58597 32.4148 -1.12568
12 1 6.73613 32.3304 -1.57656
13 1 5.9214 32.7894 -1.57283
14 1 5.04233 33.167 -1.51709
15 1 4.24845 32.8458 -1.89544
16 1 4.51978 32.9146 -2.74626
17 1 5.27225 32.3765 -2.51087
18 1 6.1953 32.5599 -2.69468
19 1 6.23644 33.3901 -3.11644
20 1 6.20221 34.3544 -3.23378
21 1 5.68676 34.2607 -2.43584
22 1 4.85638 34.208 -2.06332
23 1 4.4369 34.7992 -1.44663
24 1 3.74496 34.1637 -1.45279
25 1 3.81951 34.2387 -0.504945
26 1 3.63327 34.6352 0.347065
27 1 3.57602 34.3598 1.25483
28 1 3.03744 34.1852 1.99193
29 1 2.50784 34.3765 2.80425
30 1 2.88087 34.1117 3.65065
31 1 2.8838 33.2643 4.02746
32 1 3.16856 32.3739 3.76925
ITEM: TIMESTEP
920000
ITEM: NUMBER OF ATOMS
32
ITEM: BOX BOUNDS mm mm mm
-1.6000000000000000e+01 1.6000000000000000e+01
-1.6000000000000000e+01 4.4723912928192043e+01
-1.6000000000000000e+01 1.6000000000000000e+01
ITEM: ATOMS id type x y z
1 1 5.73052 33.5405 0.738308
2 1 5.57992 34.3932 0.43264
3 1 5.82848 35.3073 0.446873
4 1 5.83871 36.0616 1.02407
5 1 5.55978 36.9242 0.844772
6 1 5.0516 37.6746 0.369898
7 1 4.49538 37.9836 -0.372094
8 1 4.38324 37.6272 -1.24722
9 1 3.76773 36.9905 -0.983891
10 1 3.42202 36.4677 -1.66546
11 1 3.41666 37.114 -2.29129
12 1 3.66442 37.311 -3.1638
13 1 3.9864 36.5473 -3.64071
14 1 3.51817 36.0212 -4.28771
15 1 2.79383 35.7189 -4.84241
16 1 2.19937 36.4169 -4.98595
17 1 2.03135 37.3108 -5.16043
18 1 1.87957 38.2472 -5.02791
19 1 1.72884 39.1953 -5.06363
20 1 1.45121 40.0334 -4.73552
21 1 1.06229 40.2885 -3.94024
22 1 0.1073 40.3701 -3.94086
23 1 -0.531846 40.1432 -4.62081
24 1 -0.541111 40.1763 -5.5831
25 1 -0.825251 41.0234 -5.3315
26 1 -0.788867 41.9715 -5.41624
27 1 -0.672121 42.9521 -5.37995
28 1 0.140958 43.0465 -5.91664
29 1 1.05606 43.3148 -6.04545
30 1 1.90065 43.3251 -5.70618
31 1 2.48128 44.0802 -5.7602
32 1 2.63425 44.9556 -5.43263
ITEM: TIMESTEP
930000
ITEM: NUMBER OF ATOMS
32
ITEM: BOX BOUNDS mm mm mm
-1.6000000000000000e+01 1.6000000000000000e+01
-1.6000000000000000e+01 4.7098896139229339e+01
-1.6000000000000000e+01 1.6000000000000000e+01
ITEM: ATOMS id type x y z
1 1 12.2175 36.2069 -1.03148
2 1 12.0459 36.2214 -0.134466
3 1 11.3188 35.8724 0.286711
4 1 10.7951 36.1951 0.955909
5 1 10.1768 36.8492 1.25588
6 1 10.2372 37.6701 1.75899
7 1 10.3937 38.5329 2.05155
8 1 9.51468 38.5204 1.79349
9 1 8.85016 37.987 1.38489
10 1 8.20132 37.7608 0.671789
11 1 7.45365 37.7066 0.0732206
12 1 6.70325 38.0062 -0.523233
13 1 6.70908 38.4283 -1.33714
14 1 6.86657 38.5085 -2.28955
15 1 6.78281 38.972 -3.10573
16 1 7.0706 39.1873 -3.95632
17 1 7.3319 39.85 -4.55654
18 1 6.62163 39.4971 -5.02299
19 1 6.41537 40.0942 -5.78682
20 1 6.55304 40.9914 -5.66664
21 1 5.82447 41.5542 -5.43674
22 1 5.37749 42.153 -5.91639
23 1 5.10748 42.6965 -6.65588
24 1 4.60709 43.4829 -6.6603
25 1 4.68601 44.4218 -6.80257
26 1 4.63684 45.1663 -6.2392
27 1 4.99234 45.9686 -5.86534
28 1 5.13118 46.1819 -4.95991
29 1 4.24417 46.0068 -5.14021
30 1 3.35481 46.4052 -5.21517
31 1 2.60376 46.942 -5.27356
32 1 1.87356 47.0596 -5.89164
ITEM: TIMESTEP
940000
ITEM: NUMBER OF ATOMS
32
ITEM: BOX BOUNDS mm mm mm
-1.6000000000000000e+01 1.6000000000000000e+01
-1.6000000000000000e+01 4.9187083645601341e+01
-1.6000000000000000e+01 1.6000000000000000e+01
ITEM: ATOMS id type x y z
1 1 10.1857 43.5738 1.29199
2 1 10.4309 44.4368 1.48921
3 1 9.8594 45.1971 1.63527
4 1 9.06275 45.3623 1.22027
5 1 8.23737 45.7691 1.0135
6 1 8.52736 46.0924 0.106271
7 1 9.26943 46.5626 -0.275338
8 1 9.74887 45.7389 -0.580004
9 1 10.6747 45.3927 -0.474379
10 1 11.1813 44.6477 -0.674802
11 1 10.431 44.2781 -1.15724
12 1 9.54884 44.184 -1.51401
13 1 9.5382 43.3946 -1.9586
14 1 9.47815 43.0302 -2.85523
15 1 8.86372 42.8966 -3.53217
16 1 8.33376 42.4097 -4.19338
17 1 7.69166 42.2978 -4.90728
18 1 6.9133 42.1433 -5.38087
19 1 6.23113 42.7418 -5.104
20 1 6.33802 43.643 -4.91859
21 1 6.97227 44.2189 -4.45935
22 1 6.3492 44.5811 -3.84139
23 1 6.7701 44.4658 -3.00262
24 1 6.25839 44.8438 -2.27138
25 1 6.84316 45.3151 -1.73365
26 1 7.38365 45.8431 -2.2895
27 1 7.43077 46.6793 -2.65562
28 1 7.50598 47.577 -2.96819
29 1 7.0886 48.3819 -3.00615
30 1 6.24496 48.7021 -3.30459
31 1 6.1672 48.8027 -4.23571
32 1 5.47675 49.0883 -4.79062
ITEM: TIMESTEP
950000
ITEM: NUMBER OF ATOMS
32
ITEM: BOX BOUNDS mm mm mm
-1.6000000000000000e+01 1.6000000000000000e+01
-1.6000000000000000e+01 4.5052262744565716e+01
-1.6000000000000000e+01 1.6000000000000000e+01
ITEM: ATOMS id type x y z
1 1 11.2627 44.2214 -2.42805
2 1 10.4275 44.5976 -2.67905
3 1 9.58037 44.9275 -2.95954
4 1 9.47112 44.4149 -2.1985
5 1 10.1002 43.926 -1.73365
6 1 10.5669 43.0759 -1.55343
7 1 10.7375 42.1789 -1.32868
8 1 10.4218 41.2733 -1.51645
9 1 10.3464 41.2792 -2.47587
10 1 10.2538 40.948 -3.38177
11 1 11.0392 40.4921 -3.63129
12 1 11.0047 39.6739 -4.12998
13 1 10.2249 39.2155 -3.85913
14 1 9.44816 39.2427 -4.36479
15 1 8.64793 39.7647 -4.26698
16 1 8.63763 39.4778 -5.12324
17 1 8.00878 39.2099 -5.73672
18 1 7.7278 40.1233 -5.78628
19 1 7.53788 40.8398 -6.31296
20 1 7.00408 41.6169 -6.07864
21 1 6.75102 42.3572 -6.56783
22 1 5.86165 41.9686 -6.81967
23 1 5.23732 41.2825 -6.58972
24 1 4.37536 41.2129 -6.2308
25 1 3.55537 41.1865 -5.67573
26 1 2.58062 41.2571 -5.69209
27 1 2.54396 41.8256 -6.43505
28 1 2.21478 42.4176 -7.14813
29 1 2.89754 42.0229 -7.62092
30 1 3.28637 41.7777 -8.38882
31 1 3.73938 42.3489 -8.96846
32 1 4.19622 41.5203 -9.11102
ITEM: TIMESTEP
960000
ITEM: NUMBER OF ATOMS
32
ITEM: BOX BOUNDS mm mm mm
-1.6000000000000000e+01 1.6000000000000000e+01
-1.6000000000000000e+01 4.2216326752842036e+01
-1.6000000000000000e+01 1.6000000000000000e+01
ITEM: ATOMS id type x y z
1 1 13.0015 37.9563 -1.66538
2 1 13.0001 38.6748 -1.0748
3 1 12.6033 39.4408 -0.768562
4 1 11.7041 39.1393 -0.616429
5 1 11.9066 39.3083 0.246978
6 1 12.0486 39.9563 0.898743
7 1 11.3514 40.6592 0.864388
8 1 10.8468 41.45 0.727551
9 1 11.1546 42.2131 0.261592
10 1 11.2723 41.847 -0.56141
11 1 11.5635 41.125 -1.0915
12 1 11.4359 40.5233 -1.83913
13 1 11.0103 40.8705 -2.62272
14 1 10.6173 41.5272 -3.25147
15 1 9.95805 41.7944 -3.8087
16 1 10.0521 41.1738 -4.46372
17 1 9.57022 40.348 -4.51504
18 1 9.11074 40.241 -5.27461
19 1 8.5089 39.8377 -5.90504
20 1 8.81756 39.029 -6.26613
21 1 8.86249 38.0616 -6.10624
22 1 8.16292 37.8189 -6.72461
23 1 7.88146 37.9141 -7.56881
24 1 8.07229 37.3448 -8.31051
25 1 8.68401 36.723 -8.77098
26 1 8.53496 35.8709 -9.04775
27 1 8.13218 35.6976 -9.88798
28 1 8.53683 36.5092 -10.2579
29 1 7.96089 37.2105 -10.4031
30 1 7.67277 37.8673 -11.0016
31 1 7.62739 38.6452 -11.5456
32 1 6.81155 39.2102 -11.5028
ITEM: TIMESTEP
970000
ITEM: NUMBER OF ATOMS
32
ITEM: BOX BOUNDS mm mm mm
-1.6000000000000000e+01 1.6000000000000000e+01
-1.6000000000000000e+01 4.2281445463374681e+01
-1.6000000000000000e+01 1.6000000000000000e+01
ITEM: ATOMS id type x y z
1 1 4.90636 41.4902 -2.14718
2 1 5.71552 41.5654 -2.62736
3 1 6.39672 41.1968 -3.19795
4 1 6.55258 40.7728 -4.01793
5 1 7.03598 41.5326 -4.33186
6 1 7.75006 41.3035 -4.84134
7 1 6.88162 41.066 -5.21121
8 1 6.80509 41.3333 -6.07749
9 1 6.89473 40.7846 -6.80716
10 1 6.52523 40.3465 -7.54708
11 1 6.78421 39.4114 -7.44911
12 1 6.11184 38.6841 -7.61096
13 1 5.32435 38.892 -7.13215
14 1 4.96022 39.1838 -6.33365
15 1 4.5671 39.9312 -6.75168
16 1 5.02947 40.1209 -7.5602
17 1 5.2625 40.7916 -8.14952
18 1 6.03239 41.2538 -8.49084
19 1 6.77176 41.7918 -8.69995
20 1 7.63336 41.8426 -8.28726
21 1 7.89951 42.4293 -8.97774
22 1 7.84632 41.5982 -9.48251
23 1 7.8697 41.0951 -10.3005
24 1 8.17962 40.7104 -11.1101
25 1 8.96463 40.4876 -11.5869
26 1 9.79793 40.1999 -11.4698
27 1 10.097 39.4234 -11.0063
28 1 9.89769 39.2413 -10.1208
29 1 9.53907 38.3998 -9.98397
30 1 8.76443 37.9791 -10.377
31 1 8.07896 38.5285 -10.1811
32 1 7.12037 38.7666 -10.0274
ITEM: TIMESTEP
980000
ITEM: NUMBER OF ATOMS
32
ITEM: BOX BOUNDS mm mm mm
-1.6000000000000000e+01 1.6000000000000000e+01
-1.6000000000000000e+01 4.6823091025306312e+01
-1.6000000000000000e+01 1.6000000000000000e+01
ITEM: ATOMS id type x y z
1 1 5.68273 46.8298 -2.34221
2 1 6.62557 46.7127 -2.52801
3 1 7.28877 46.0593 -2.66227
4 1 8.18639 45.9578 -2.41109
5 1 8.42214 45.5523 -1.54198
6 1 8.85404 44.7548 -1.38101
7 1 8.71921 44.0367 -1.98684
8 1 9.09118 43.3004 -2.49462
9 1 9.12798 43.1352 -3.44218
10 1 9.47958 42.8917 -4.25962
11 1 9.57503 42.626 -5.11401
12 1 9.23431 42.873 -5.93587
13 1 8.62876 43.3111 -6.49366
14 1 7.76335 43.3158 -6.95451
15 1 6.90814 43.728 -6.97351
16 1 5.98214 43.7223 -6.93518
17 1 5.54344 42.8623 -6.75983
18 1 5.98133 42.0286 -6.76094
19 1 6.83723 41.6866 -6.43767
20 1 6.90556 41.4388 -7.31833
21 1 7.24697 40.8349 -7.93719
22 1 7.76229 40.3583 -8.56035
23 1 8.25803 39.5571 -8.41823
24 1 7.76614 38.8015 -8.12105
25 1 7.35743 38.0302 -7.85545
26 1 7.60657 37.1639 -8.10205
27 1 7.48811 37.124 -8.99344
28 1 7.31788 37.6435 -9.78433
29 1 8.27808 37.4538 -9.82307
30 1 9.08705 37.0967 -10.0661
31 1 9.59026 36.8016 -10.8157
32 1 10.4875 36.8483 -10.6018
ITEM: TIMESTEP
990000
ITEM: NUMBER OF ATOMS
32
ITEM: BOX BOUNDS mm mm mm
-1.6000000000000000e+01 1.6000000000000000e+01
-1.6000000000000000e+01 5.0014580093036912e+01
-1.6000000000000000e+01 1.6000000000000000e+01
ITEM: ATOMS id type x y z
1 1 12.2685 49.9627 -6.38211
2 1 12.8339 49.4461 -6.88769
3 1 13.4833 49.0393 -6.37659
4 1 13.48 48.3107 -5.79442
5 1 13.1541 47.456 -5.52905
6 1 12.8396 46.7012 -5.09308
7 1 12.3858 45.932 -4.63927
8 1 12.2476 45.1626 -4.16777
9 1 12.4268 44.2796 -3.9836
10 1 12.4509 43.6219 -4.6594
11 1 12.3858 43.0763 -5.46227
12 1 12.3141 42.523 -6.25781
13 1 12.6426 42.5736 -7.18824
14 1 13.439 42.1262 -7.28432
15 1 13.3957 41.4338 -7.91173
16 1 13.7806 40.6527 -8.33337
17 1 13.653 40.1708 -9.11796
18 1 13.0185 39.9002 -9.75444
19 1 12.1001 39.8246 -9.86227
20 1 11.4599 39.9618 -10.5621
21 1 11.0241 39.7636 -11.3611
22 1 10.4147 40.356 -11.8391
23 1 10.6697 40.0102 -12.7349
24 1 10.4163 39.7701 -13.6145
25 1 10.6143 39.3152 -14.4335
26 1 10.555 38.4064 -14.5448
27 1 10.7977 37.7453 -15.143
28 1 10.3012 36.9883 -15.449
29 1 10.0528 36.0757 -15.1277
30 1 9.58487 36.1057 -14.3091
31 1 9.10526 36.6119 -13.7508
32 1 8.72582 35.7591 -13.6137
ITEM: TIMESTEP
1000000
ITEM: NUMBER OF ATOMS
32
ITEM: BOX BOUNDS mm mm mm
-1.6000000000000000e+01 1.8432644685426290e+01
-1.6000000000000000e+01 4.2737617175390213e+01
-1.6000000000000000e+01 1.6000000000000000e+01
ITEM: ATOMS id type x y z
1 1 15.5111 42.6572 -9.5531
2 1 14.6746 42.3226 -9.69251
3 1 14.2737 41.7241 -10.3087
4 1 13.639 41.4221 -9.70694
5 1 12.8367 41.2378 -9.19543
6 1 11.9166 40.957 -9.02904
7 1 11.2795 40.295 -8.69254
8 1 11.4266 39.4798 -8.35523
9 1 11.1336 38.7484 -8.87818
10 1 10.3013 38.6789 -8.40468
11 1 9.71102 38.9591 -7.71829
12 1 9.58354 38.0386 -7.86238
13 1 10.1691 37.3676 -8.13678
14 1 11.0682 37.179 -7.99538
15 1 11.4338 36.6696 -8.69344
16 1 11.1472 35.772 -8.50559
17 1 11.4828 35.0693 -8.99824
18 1 12.3463 35.2226 -9.31791
19 1 13.0298 34.9785 -9.95962
20 1 13.0614 35.1307 -10.9231
21 1 12.8156 35.4089 -11.7474
22 1 11.9655 35.3477 -12.2468
23 1 12.465 35.3309 -13.0739
24 1 13.0417 35.0734 -13.7435
25 1 13.952 35.1289 -14.106
26 1 14.8419 35.3302 -13.9621
27 1 15.4687 34.6076 -14.1729
28 1 16.3211 34.7297 -13.9261
29 1 17.0865 35.2752 -14.1897
30 1 16.8896 34.6843 -14.911
31 1 17.5749 34.95 -15.4865
32 1 18.3993 35.3637 -15.6935
ITEM: TIMESTEP
1010000
ITEM: NUMBER OF ATOMS
32
ITEM: BOX BOUNDS mm mm mm
-1.6000000000000000e+01 1.8829434456922005e+01
-1.6000000000000000e+01 4.1777445662446979e+01
-2.0900749726809629e+01 1.6000000000000000e+01
ITEM: ATOMS id type x y z
1 1 18.5904 34.84 -2.30737
2 1 18.0097 35.2192 -2.97627
3 1 17.2549 35.6325 -3.29987
4 1 16.7288 35.8846 -4.08728
5 1 17.3808 36.5312 -3.84164
6 1 16.918 37.3344 -3.61106
7 1 16.1742 37.8841 -3.81752
8 1 15.4109 38.2135 -4.25569
9 1 15.084 38.6211 -5.0482
10 1 14.9852 38.6788 -5.97447
11 1 15.626 38.9816 -6.5291
12 1 15.9945 38.7678 -7.426
13 1 16.2668 39.5383 -7.89658
14 1 16.4233 40.0426 -8.71902
15 1 16.5237 40.7268 -9.33544
16 1 16.7124 40.69 -10.2752
17 1 17.0493 40.8084 -11.1607
18 1 17.5011 40.1118 -11.5297
19 1 17.213 40.5203 -12.3137
20 1 17.101 41.1318 -13.124
21 1 17.3955 41.7034 -13.7916
22 1 16.758 41.2813 -14.3611
23 1 16.7917 40.6707 -15.0999
24 1 16.5836 40.2378 -15.9052
25 1 17.0352 39.9286 -16.646
26 1 16.8886 39.6883 -17.5233
27 1 16.4073 39.1942 -18.1947
28 1 16.2659 38.7992 -19.0494
29 1 16.2728 38.7738 -19.997
30 1 15.9586 38.3354 -20.7733
31 1 16.498 37.5395 -21.0338
32 1 15.9339 37.3286 -20.2938
ITEM: TIMESTEP
1020000
ITEM: NUMBER OF ATOMS
32
ITEM: BOX BOUNDS mm mm mm
-1.6000000000000000e+01 1.9540611262391497e+01
-1.6000000000000000e+01 4.3478699895311038e+01
-1.9318293469847831e+01 1.6000000000000000e+01
ITEM: ATOMS id type x y z
1 1 18.7731 41.1488 -8.35359
2 1 18.5838 41.5766 -9.20128
3 1 18.2277 41.5304 -10.0839
4 1 17.8212 41.1808 -10.8641
5 1 17.9162 41.1358 -11.7881
6 1 17.3221 40.3762 -11.8133
7 1 16.7361 39.8875 -12.3399
8 1 16.6918 39.0029 -12.7143
9 1 16.2376 38.7382 -13.5148
10 1 16.0169 39.4933 -14.0026
11 1 15.2442 39.6957 -14.4562
12 1 14.5402 40.2681 -14.7592
13 1 13.8429 39.7033 -14.5615
14 1 13.2724 39.7058 -13.8518
15 1 12.3642 39.7896 -13.6991
16 1 12.1954 39.3835 -14.5409
17 1 12.6746 40.1572 -15.0264
18 1 12.9711 40.7335 -15.6814
19 1 13.6546 41.3549 -15.8873
20 1 14.5525 41.3033 -16.2184
21 1 15.2948 41.1545 -15.6406
22 1 16.1008 41.2569 -15.2211
23 1 16.0683 42.2022 -15.0491
24 1 16.4795 42.565 -14.2895
25 1 16.8704 43.2856 -14.6971
26 1 16.8248 43.8434 -15.4254
27 1 16.3171 43.2279 -15.9656
28 1 17.0685 42.6815 -16.2096
29 1 17.569 42.6941 -17.0257
30 1 17.3519 42.4663 -17.9154
31 1 18.202 42.6234 -18.357
32 1 18.2006 42.4505 -19.307
ITEM: TIMESTEP
1030000
ITEM: NUMBER OF ATOMS
32
ITEM: BOX BOUNDS mm mm mm
-1.6000000000000000e+01 1.9876747694332693e+01
-1.6000000000000000e+01 4.1776108145140896e+01
-1.7990185473416933e+01 1.6000000000000000e+01
ITEM: ATOMS id type x y z
1 1 16.8759 35.1864 -15.2361
2 1 15.9703 34.8658 -15.2558
3 1 15.8275 35.688 -14.8635
4 1 16.3837 36.4463 -14.7705
5 1 16.3118 37.2316 -15.3181
6 1 15.4142 37.0893 -15.6031
7 1 14.9249 37.2339 -14.8033
8 1 14.462 38.0275 -14.6355
9 1 13.6599 38.4668 -14.3909
10 1 13.6085 39.0723 -13.6065
11 1 13.6854 39.9002 -13.1891
12 1 13.5418 40.756 -13.6471
13 1 14.4771 40.9393 -13.3786
14 1 15.2948 41.0213 -12.9405
15 1 16.2195 41.1273 -13.0414
16 1 16.6853 41.7024 -13.6348
17 1 16.8587 41.3692 -14.4935
18 1 17.2246 41.1185 -15.3339
19 1 16.7042 40.4433 -15.7201
20 1 16.9222 39.5108 -15.8909
21 1 16.7641 38.6494 -16.2201
22 1 17.3539 37.9383 -15.9788
23 1 17.6355 37.1449 -16.4489
24 1 18.0727 36.2754 -16.6005
25 1 18.573 35.5517 -16.9802
26 1 18.9272 34.73 -16.8377
27 1 18.931 33.978 -17.3589
28 1 19.7354 33.5929 -17.4831
29 1 20.0424 32.7478 -17.8565
30 1 19.4624 32.1197 -18.2131
31 1 18.6413 32.1053 -17.7406
32 1 17.8276 32.38 -17.3526
ITEM: TIMESTEP
1040000
ITEM: NUMBER OF ATOMS
32
ITEM: BOX BOUNDS mm mm mm
-1.6000000000000000e+01 1.7696590679138357e+01
-1.6000000000000000e+01 4.1372844021861304e+01
-1.9344881836917995e+01 1.6000000000000000e+01
ITEM: ATOMS id type x y z
1 1 12.5281 39.8016 -14.4443
2 1 12.5103 39.823 -15.3883
3 1 11.7131 40.1417 -15.867
4 1 10.933 40.6281 -16.0645
5 1 10.4989 40.8675 -15.2053
6 1 10.7496 40.6149 -14.3376
7 1 10.3219 40.012 -13.7818
8 1 10.2484 39.1585 -13.4125
9 1 10.1957 38.2521 -13.1229
10 1 10.2662 37.7761 -13.9426
11 1 10.5328 37.0474 -14.4896
12 1 9.6434 36.6898 -14.5032
13 1 10.1256 35.8904 -14.898
14 1 10.2383 35.9605 -15.9111
15 1 11.0995 36.3481 -16.1135
16 1 11.9177 36.7937 -16.1908
17 1 12.8576 36.8612 -16.3028
18 1 13.6783 37.2844 -16.1619
19 1 14.5187 37.4338 -16.4965
20 1 14.4724 38.4352 -16.5415
21 1 14.8858 39.2785 -16.5383
22 1 15.802 39.5158 -16.5227
23 1 16.7504 39.3379 -16.5526
24 1 17.386 39.4211 -17.3429
25 1 17.8564 40.2188 -17.5333
26 1 17.7524 40.5186 -18.4262
27 1 17.1289 41.2473 -18.3859
28 1 16.2691 41.2691 -18.1238
29 1 15.734 40.7763 -18.7119
30 1 15.3248 40.1876 -19.4221
31 1 15.2416 39.5953 -18.7035
32 1 15.4045 39.6862 -17.7795
ITEM: TIMESTEP
1050000
ITEM: NUMBER OF ATOMS
32
ITEM: BOX BOUNDS mm mm mm
-1.6000000000000000e+01 1.6663023073278698e+01
-1.6000000000000000e+01 4.4485272314288096e+01
-1.7518913926303473e+01 1.6000000000000000e+01
ITEM: ATOMS id type x y z
1 1 13.5573 39.3158 -16.2883
2 1 13.6027 40.2604 -16.0761
3 1 13.1428 40.3165 -15.2289
4 1 12.4912 40.8423 -14.8078
5 1 11.8787 41.3812 -14.3219
6 1 12.1459 42.2981 -14.4514
7 1 11.6088 43.0887 -14.412
8 1 11.0686 43.8283 -14.0907
9 1 10.3811 43.8431 -13.4528
10 1 9.76399 43.9526 -12.7407
11 1 8.9584 44.4342 -12.5694
12 1 8.43164 43.6171 -12.4489
13 1 8.81004 42.7799 -12.7179
14 1 9.772 42.5888 -12.5172
15 1 9.40582 41.7576 -12.7813
16 1 9.57391 40.8195 -12.831
17 1 10.0562 40.0014 -12.7997
18 1 10.4482 39.4018 -13.3894
19 1 10.9008 38.9815 -14.0613
20 1 11.7037 38.7734 -14.578
21 1 12.2514 38.1468 -14.9904
22 1 13.0422 38.4641 -15.4243
23 1 13.7782 38.0666 -15.7969
24 1 13.7158 37.1192 -15.8394
25 1 13.7118 36.1496 -15.5872
26 1 13.5411 35.2974 -15.8774
27 1 14.159 35.4784 -16.5506
28 1 14.8365 35.5601 -17.1853
29 1 15.6914 35.1823 -17.5482
30 1 16.1911 35.9149 -17.1557
31 1 16.3982 36.6797 -16.6732
32 1 16.7832 37.5632 -16.6404
ITEM: TIMESTEP
1060000
ITEM: NUMBER OF ATOMS
32
ITEM: BOX BOUNDS mm mm mm
-1.6000000000000000e+01 1.6000000000000000e+01
-1.6000000000000000e+01 4.4523642905294402e+01
-1.6968090574308292e+01 1.6000000000000000e+01
ITEM: ATOMS id type x y z
1 1 10.2454 35.064 -11.9328
2 1 10.7595 35.6203 -11.3888
3 1 11.1336 36.4929 -11.1207
4 1 11.4963 37.2916 -10.894
5 1 12.3164 37.8706 -11.0922
6 1 12.1005 38.4249 -11.8129
7 1 11.813 39.0385 -12.5284
8 1 12.1395 39.7556 -12.0671