ITEM: TIMESTEP
3750000
ITEM: NUMBER OF ATOMS
32
ITEM: BOX BOUNDS mm mm mm
-1.6000000000000000e+01 3.7481150846424725e+01
-1.6000000000000000e+01 4.6038333554167600e+01
-2.0743996275979431e+01 1.6000000000000000e+01
ITEM: ATOMS id type x y z
1 1 23.5536 44.5413 -18.4911
2 1 23.751 44.5155 -17.4934
3 1 24.0749 45.1156 -16.7894
4 1 24.2135 45.5994 -16.0056
5 1 24.4672 45.7048 -15.0769
6 1 24.9817 45.8087 -14.2816
7 1 25.5526 46.0321 -13.5407
8 1 25.8992 45.8712 -12.7049
9 1 26.3423 45.2928 -12.08
10 1 26.8392 44.6881 -11.454
11 1 27.4707 44.2334 -10.9451
12 1 27.922 43.7195 -10.3159
13 1 28.5821 43.2146 -9.79167
14 1 29.2165 42.6611 -9.38113
15 1 29.8251 41.9057 -9.60798
16 1 30.5255 41.3599 -10.0004
17 1 31.2248 41.0263 -10.5036
18 1 31.9643 40.9535 -11.1855
19 1 32.8638 40.8737 -11.4681
20 1 33.5483 41.2136 -11.9808
21 1 34.1354 41.5712 -12.6205
22 1 34.5574 42.071 -13.2644
23 1 34.953 42.6784 -13.8758
24 1 35.177 43.2767 -14.509
25 1 35.133 43.8521 -15.2317
26 1 35.1149 44.1942 -16.0995
27 1 35.2525 44.405 -17.0041
28 1 35.6578 44.7379 -17.7664
29 1 36.3255 44.7367 -18.4711
30 1 36.7413 44.6246 -19.3089
31 1 37.0608 44.1402 -20.0638
32 1 37.4758 43.6079 -20.7403
ITEM: TIMESTEP
3760000
ITEM: NUMBER OF ATOMS
32
ITEM: BOX BOUNDS mm mm mm
-1.6000000000000000e+01 3.7057946303126919e+01
-1.6000000000000000e+01 4.6386505316577846e+01
-1.8351606057510278e+01 1.6000000000000000e+01
ITEM: ATOMS id type x y z
1 1 32.4004 45.542 -14.5155
2 1 31.8283 45.7014 -13.7794
3 1 31.2836 45.9398 -13.0536
4 1 30.8072 46.0616 -12.3002
5 1 30.1882 46.3252 -11.6709
6 1 29.5939 46.4403 -10.9522
7 1 28.9698 46.0023 -10.3921
8 1 29.0196 45.2378 -9.82042
9 1 29.222 44.4138 -9.35762
10 1 29.3698 43.5807 -8.97701
11 1 29.4894 42.6284 -8.74013
12 1 29.7756 41.7581 -8.57564
13 1 30.2724 41.0274 -8.35029
14 1 30.5227 40.0758 -8.29819
15 1 31.1386 39.4006 -8.54215
16 1 31.8475 38.8462 -8.93085
17 1 32.6425 38.3739 -9.12426
18 1 33.5625 37.9307 -9.31126
19 1 34.4183 37.6253 -9.14631
20 1 35.2433 37.3068 -9.47516
21 1 35.8032 36.8682 -9.99692
22 1 36.2401 36.6355 -10.8118
23 1 36.5474 36.2818 -11.6576
24 1 36.8127 36.1973 -12.4927
25 1 37.0329 36.3703 -13.4161
26 1 36.8309 36.6666 -14.257
27 1 36.1225 36.825 -14.9143
28 1 35.483 37.2018 -15.4867
29 1 34.656 37.0603 -15.909
30 1 34.0428 36.7615 -16.5219
31 1 33.7392 36.581 -17.4179
32 1 33.6753 36.0597 -18.2665
ITEM: TIMESTEP
3770000
ITEM: NUMBER OF ATOMS
32
ITEM: BOX BOUNDS mm mm mm
-1.6000000000000000e+01 3.7584230892332791e+01
-1.6000000000000000e+01 5.1174071782526767e+01
-1.7987153919566556e+01 1.6000000000000000e+01
ITEM: ATOMS id type x y z
1 1 33.2687 50.5089 -13.0156
2 1 34.0569 50.6633 -12.5772
3 1 34.9216 50.5958 -12.141
4 1 35.8202 50.5964 -11.6777
5 1 36.2821 50.8223 -10.9398
6 1 36.7807 50.6362 -10.1737
7 1 37.3127 49.9514 -9.69678
8 1 37.5508 49.2574 -9.10647
9 1 37.3875 48.475 -8.64153
10 1 37.1782 47.59 -8.55498
11 1 36.6021 46.8389 -8.51597
12 1 36.3673 45.9651 -8.81079
13 1 35.7868 45.2415 -8.95891
14 1 35.3417 44.4334 -9.25111
15 1 35.0117 43.5781 -9.6471
16 1 34.7688 42.7821 -10.0274
17 1 34.7424 41.923 -10.4006
18 1 34.6226 41.1663 -10.923
19 1 34.3804 40.5558 -11.5797
20 1 34.0816 39.7641 -12.0153
21 1 34.2091 39.1858 -12.8401
22 1 34.1196 38.8586 -13.7312
23 1 34.1261 38.6599 -14.6289
24 1 34.2588 38.2266 -15.4214
25 1 34.2597 37.8772 -16.2754
26 1 34.7768 37.4083 -16.8914
27 1 35.475 37.0473 -17.3495
28 1 36.0616 36.6017 -17.9032
29 1 36.5588 35.7839 -18.1318
30 1 36.7476 34.8281 -18.14
31 1 36.8949 33.8883 -17.8062
32 1 36.7688 33.0291 -17.6106
ITEM: TIMESTEP
3780000
ITEM: NUMBER OF ATOMS
32
ITEM: BOX BOUNDS mm mm mm
-1.6000000000000000e+01 4.2719494529748310e+01
-1.6000000000000000e+01 4.8852846088588443e+01
-2.6906872782377498e+01 1.6000000000000000e+01
ITEM: ATOMS id type x y z
1 1 31.5671 48.8732 -9.42997
2 1 32.0294 48.0795 -9.59152
3 1 32.4171 47.5873 -10.335
4 1 33.1412 47.1601 -10.7449
5 1 33.4612 47.1167 -11.6406
6 1 33.9386 47.0146 -12.4767
7 1 34.5764 46.8018 -13.1253
8 1 35.5244 46.7071 -13.2073
9 1 36.4422 46.4284 -13.1819
10 1 37.174 45.8365 -13.2797
11 1 38.0189 45.4365 -13.4089
12 1 38.8512 45.1189 -13.2842
13 1 39.6666 44.963 -13.7631
14 1 40.3576 44.5207 -14.3185
15 1 41.1455 44.0898 -14.5405
16 1 41.7362 43.6641 -15.1253
17 1 42.2373 43.2372 -15.7412
18 1 42.465 42.673 -16.4703
19 1 42.5807 42.1404 -17.23
20 1 42.6316 41.8618 -18.1074
21 1 42.6881 41.2366 -18.8082
22 1 42.1276 40.9771 -19.5255
23 1 41.618 40.791 -20.2392
24 1 40.8454 40.6841 -20.8311
25 1 40.09 40.4853 -21.4292
26 1 39.6347 40.414 -22.2058
27 1 39.447 40.3288 -23.1528
28 1 39.4472 40.389 -24.0729
29 1 39.4819 40.413 -25.0311
30 1 39.8641 40.6707 -25.8143
31 1 40.26 41.2984 -26.3911
32 1 40.4606 42.1023 -26.8871
ITEM: TIMESTEP
3790000
ITEM: NUMBER OF ATOMS
32
ITEM: BOX BOUNDS mm mm mm
-1.6000000000000000e+01 4.0951384423192238e+01
-1.6000000000000000e+01 5.6491533912275202e+01
-2.2519560431584267e+01 1.6000000000000000e+01
ITEM: ATOMS id type x y z
1 1 34.0903 56.3738 -14.1723
2 1 34.1249 55.4764 -13.8891
3 1 34.1085 54.6734 -13.2801
4 1 34.0631 53.7604 -13.0257
5 1 33.8028 52.9298 -12.6511
6 1 34.1032 52.1562 -12.1593
7 1 33.8156 51.3077 -11.7906
8 1 34.0304 50.5811 -11.2396
9 1 34.2239 49.6985 -11.1184
10 1 34.6143 48.9986 -10.6454
11 1 35.3223 48.532 -10.1708
12 1 36.1603 48.147 -10.1594
13 1 36.9652 47.718 -10.2487
14 1 37.7494 47.4162 -10.6513
15 1 38.4909 47.2501 -11.1585
16 1 39.0439 46.6118 -11.5541
17 1 39.3329 45.9722 -12.0802
18 1 39.6024 45.1993 -12.5484
19 1 39.6535 44.494 -13.1393
20 1 39.6903 43.8164 -13.7299
21 1 40.1547 43.1705 -14.1604
22 1 40.6158 42.5753 -14.7693
23 1 41.2253 42.3293 -15.4672
24 1 41.3754 41.8588 -16.2723
25 1 41.1648 41.9841 -17.1947
26 1 40.9472 41.9815 -18.1208
27 1 40.6452 41.9169 -18.982
28 1 40.556 42.0412 -19.992
29 1 40.3766 42.4826 -20.8029
30 1 40.5065 42.8755 -21.676
31 1 40.4875 43.3905 -22.4469
32 1 40.7936 43.8885 -23.2101
ITEM: TIMESTEP
3800000
ITEM: NUMBER OF ATOMS
32
ITEM: BOX BOUNDS mm mm mm
-1.6000000000000000e+01 4.1830239899411090e+01
-1.6000000000000000e+01 4.9767393137563452e+01
-2.0537642485154716e+01 1.6000000000000000e+01
ITEM: ATOMS id type x y z
1 1 26.2244 49.9419 -13.2235
2 1 26.7786 49.3991 -12.7882
3 1 27.4948 48.9615 -12.4329
4 1 28.1468 48.3228 -12.1572
5 1 28.9395 47.8779 -11.9793
6 1 29.6824 47.3769 -11.8335
7 1 30.5119 46.9524 -11.5357
8 1 31.0507 46.4177 -11.0005
9 1 31.792 46.092 -10.4783
10 1 32.621 45.6541 -10.2978
11 1 33.1232 44.9148 -9.95693
12 1 33.9234 44.4514 -9.77507
13 1 34.8239 44.243 -9.94642
14 1 35.5404 43.8251 -10.3958
15 1 36.2039 43.2636 -10.8683
16 1 36.925 42.8563 -11.3136
17 1 37.722 42.5362 -11.6639
18 1 38.6618 42.3495 -11.9816
19 1 39.2749 42.0471 -12.6103
20 1 39.882 41.7913 -13.3069
21 1 40.0992 41.4092 -14.1526
22 1 40.4509 41.1884 -14.9578
23 1 40.6668 41.254 -15.8807
24 1 40.9438 41.6009 -16.6905
25 1 41.4085 42.1312 -17.3996
26 1 41.8113 42.6926 -18.0796
27 1 41.7634 43.5913 -18.5415
28 1 42.0522 44.3865 -19.0495
29 1 41.7599 45.1032 -19.5162
30 1 41.1521 45.7642 -19.8622
31 1 40.7244 46.5755 -20.12
32 1 40.067 47.1453 -20.4952
ITEM: TIMESTEP
3810000
ITEM: NUMBER OF ATOMS
32
ITEM: BOX BOUNDS mm mm mm
-1.6000000000000000e+01 4.1711662165176435e+01
-1.6000000000000000e+01 5.1239299498772539e+01
-1.6618219917323806e+01 1.6000000000000000e+01
ITEM: ATOMS id type x y z
1 1 28.0276 51.2757 -13.4556
2 1 28.8829 50.8212 -13.4755
3 1 29.4673 50.1111 -13.4359
4 1 29.8548 49.2847 -13.4983
5 1 30.2643 48.4833 -13.2609
6 1 30.6947 47.7519 -12.8677
7 1 31.1235 46.972 -12.6191
8 1 31.4592 46.1043 -12.4922
9 1 31.8729 45.2359 -12.3406
10 1 32.2322 44.47 -12.0011
11 1 32.3663 43.5689 -11.4728
12 1 32.534 42.6433 -11.2621
13 1 33.2521 42.1001 -11.4951
14 1 33.9702 41.6858 -11.9011
15 1 34.7649 41.4728 -12.3055
16 1 35.6559 41.7454 -12.3895
17 1 36.5411 41.8916 -12.6406
18 1 37.4345 42.1026 -12.845
19 1 38.3399 42.1157 -13.0925
20 1 39.2626 42.167 -13.1581
21 1 40.1441 42.4261 -13.1342
22 1 40.965 42.8197 -13.3976
23 1 41.3588 43.6689 -13.5351
24 1 41.6784 44.3855 -13.9945
25 1 41.5968 45.1737 -14.5278
26 1 41.5343 46.0051 -14.9641
27 1 41.225 46.8641 -15.2301
28 1 40.7289 47.5756 -15.5969
29 1 40.1441 48.2747 -15.9118
30 1 39.4208 48.7143 -16.2093
31 1 38.728 49.3225 -16.552
32 1 38.0054 49.9582 -16.6401
ITEM: TIMESTEP
3820000
ITEM: NUMBER OF ATOMS
32
ITEM: BOX BOUNDS mm mm mm
-1.6000000000000000e+01 4.7352765445260665e+01
-1.6000000000000000e+01 5.8875197086323084e+01
-2.3311805917818312e+01 1.6000000000000000e+01
ITEM: ATOMS id type x y z
1 1 33.4739 58.965 -23.4637
2 1 33.6266 58.2292 -22.8843
3 1 33.4838 57.6235 -22.1185
4 1 33.6175 56.7948 -21.6641
5 1 33.8024 55.9683 -21.2321
6 1 33.8209 55.0699 -21.0526
7 1 33.7503 54.1443 -20.986
8 1 33.856 53.231 -20.8209
9 1 33.5555 52.4237 -20.3065
10 1 33.2269 51.7055 -19.7262
11 1 33.3264 50.8895 -19.1538
12 1 33.7568 50.2555 -18.5579
13 1 34.1163 49.508 -18.076
14 1 34.2041 48.8476 -17.4615
15 1 34.6958 48.0777 -17.2868
16 1 35.4527 47.6129 -17.2453
17 1 35.951 46.8702 -17.4506
18 1 36.6985 46.3444 -17.7324
19 1 37.521 45.9623 -17.9843
20 1 38.1563 45.2562 -17.7581
21 1 38.8289 44.6117 -17.8836
22 1 39.1822 43.6945 -17.9565
23 1 40.0583 43.3705 -17.8288
24 1 40.3762 42.761 -17.1527
25 1 41.0294 42.8707 -16.4626
26 1 41.7353 42.9489 -15.8648
27 1 42.5859 43.2325 -15.5573
28 1 43.3971 43.6203 -15.4128
29 1 44.2056 44.0365 -15.5095
30 1 45.1373 44.2736 -15.2426
31 1 45.8992 44.2605 -14.7215
32 1 46.6897 44.3679 -14.2314
ITEM: TIMESTEP
3830000
ITEM: NUMBER OF ATOMS
32
ITEM: BOX BOUNDS mm mm mm
-1.6000000000000000e+01 3.9404440466276704e+01
-1.6000000000000000e+01 6.0889186306085548e+01
-2.2722841830081848e+01 1.6000000000000000e+01
ITEM: ATOMS id type x y z
1 1 32.6118 60.8894 -22.717
2 1 32.9441 59.9802 -22.641
3 1 33.2176 59.1233 -22.3925
4 1 33.8847 58.5388 -22.1345
5 1 34.4524 57.806 -21.737
6 1 34.882 57.1627 -21.2452
7 1 35.3413 56.4517 -20.8524
8 1 35.8475 55.6976 -20.8781
9 1 36.3594 54.899 -21.1619
10 1 36.8598 54.0899 -21.1382
11 1 37.3378 53.2901 -21.1078
12 1 37.7006 52.6423 -21.6351
13 1 38.3617 52.2633 -22.1501
14 1 38.954 51.5309 -22.2012
15 1 39.3625 50.6883 -22.0809
16 1 39.3838 49.7864 -21.8235
17 1 39.3348 48.8655 -21.5533
18 1 39.3938 48.0407 -21.0661
19 1 39.2408 47.1788 -20.7618
20 1 39.2928 46.3822 -20.2881
21 1 39.3364 45.4492 -20.0591
22 1 39.2155 44.6168 -19.6296
23 1 38.8492 43.8251 -19.2525
24 1 38.4509 42.9881 -19.1159
25 1 37.8454 42.3188 -18.8232
26 1 37.33 41.8874 -18.0926
27 1 36.8102 41.3042 -17.5169
28 1 36.4583 40.5228 -17.2914
29 1 35.9318 39.7439 -16.9722
30 1 35.339 38.9792 -16.7683
31 1 34.5342 38.501 -16.8587
32 1 33.7508 38.0588 -17.0375
ITEM: TIMESTEP
3840000
ITEM: NUMBER OF ATOMS
32
ITEM: BOX BOUNDS mm mm mm
-1.6000000000000000e+01 4.2086680234866549e+01
-1.6000000000000000e+01 6.3890339698773907e+01
-2.3668013612253478e+01 1.6000000000000000e+01
ITEM: ATOMS id type x y z
1 1 41.9609 63.7524 -23.2862
2 1 41.4548 62.981 -23.1078
3 1 41.0386 62.1317 -23.2143
4 1 40.8905 61.1981 -23.2514
5 1 40.8534 60.2678 -23.2577
6 1 40.9065 59.3576 -23.3957
7 1 41.1496 58.454 -23.4581
8 1 41.2485 57.5814 -23.7125
9 1 41.4727 56.6607 -23.53
10 1 41.7015 55.7941 -23.2663
11 1 41.7821 55.0784 -22.6817
12 1 41.9095 54.3901 -22.1014
13 1 41.9465 53.7184 -21.4552
14 1 41.7157 52.8657 -21.0875
15 1 41.7204 51.9328 -20.8908
16 1 41.6 50.9682 -20.8667
17 1 41.4309 50.072 -20.6269
18 1 41.4526 49.2887 -20.1124
19 1 41.3271 48.7226 -19.3511
20 1 41.2625 48.0114 -18.7061
21 1 40.9781 47.4184 -18.0254
22 1 40.736 47.1044 -17.1311
23 1 40.3425 46.9503 -16.2919
24 1 39.8598 46.8483 -15.4918
25 1 39.2218 46.3516 -15.0294
26 1 38.7897 45.5777 -14.6632
27 1 38.4934 44.6799 -14.4276
28 1 38.5141 43.7516 -14.2328
29 1 38.3656 42.8524 -14.4968
30 1 38.2339 41.9825 -14.81
31 1 37.797 41.2231 -15.2363
32 1 37.9004 40.4474 -15.6759
ITEM: TIMESTEP
3850000
ITEM: NUMBER OF ATOMS
32
ITEM: BOX BOUNDS mm mm mm
-1.6000000000000000e+01 4.2867000656895648e+01
-1.6000000000000000e+01 5.8007018581716295e+01
-2.7550772358758373e+01 1.6000000000000000e+01
ITEM: ATOMS id type x y z
1 1 42.5528 58.0011 -27.2986
2 1 42.0851 57.9483 -26.4695
3 1 41.7974 57.838 -25.6044
4 1 41.8066 57.7109 -24.6953
5 1 41.9985 57.3045 -23.9087
6 1 42.0345 56.6022 -23.2831
7 1 41.8812 56.041 -22.5752
8 1 41.7934 55.5104 -21.7932
9 1 42.3641 55.0992 -21.098
10 1 42.2679 54.6871 -20.2855
11 1 42.3879 54.0344 -19.5941
12 1 42.4167 53.0697 -19.502
13 1 42.2345 52.1446 -19.3307
14 1 42.0238 51.2761 -18.9834
15 1 41.8142 50.4955 -18.392
16 1 41.6835 49.9809 -17.6012
17 1 41.1845 49.42 -17.0187
18 1 40.6549 49.0627 -16.3107
19 1 40.0686 48.5749 -15.8251
20 1 39.4239 48.0016 -15.4085
21 1 38.6701 47.5586 -14.9337
22 1 37.7825 47.482 -14.5697
23 1 37.0056 47.3812 -13.9917
24 1 36.1402 47.2825 -13.5646
25 1 35.2974 47.2025 -13.126
26 1 34.6949 47.1702 -12.3723
27 1 34.331 47.6216 -11.62
28 1 33.6021 47.815 -11.0135
29 1 32.904 48.1714 -10.4751
30 1 32.2299 48.0621 -9.80077
31 1 31.4862 48.3104 -9.28184
32 1 30.6626 48.4379 -8.89531
ITEM: TIMESTEP
3860000
ITEM: NUMBER OF ATOMS
32
ITEM: BOX BOUNDS mm mm mm
-1.6000000000000000e+01 5.0056604838387656e+01
-1.6000000000000000e+01 5.8083700431123241e+01
-1.8734830881259466e+01 1.6000000000000000e+01
ITEM: ATOMS id type x y z
1 1 48.2772 57.9923 -19.0066
2 1 48.4977 57.0693 -18.9366
3 1 49.0549 56.377 -18.7488
4 1 49.4573 55.608 -18.5049
5 1 49.6932 55.093 -17.7613
6 1 49.8562 54.4556 -17.1023
7 1 49.8413 53.8632 -16.4251
8 1 49.7254 53.1901 -15.7428
9 1 49.4533 52.4985 -15.156
10 1 48.919 51.8951 -14.7077
11 1 48.3294 51.5493 -14.0626
12 1 47.5762 51.2684 -13.545
13 1 46.7827 51.1667 -12.9784
14 1 46.0887 50.708 -12.5573
15 1 45.3416 50.7527 -12.0114
16 1 44.4542 50.8246 -11.6218
17 1 43.5835 51.1991 -11.4392
18 1 42.705 51.4724 -11.4712
19 1 41.8591 51.414 -11.8976
20 1 40.9225 51.4098 -12.0165
21 1 40.0696 51.1291 -12.3019
22 1 39.1715 50.9578 -12.531
23 1 38.2985 51.0023 -12.301
24 1 37.5233 51.3075 -11.8615
25 1 36.7756 51.8805 -11.6301
26 1 36.1177 52.5575 -11.5344
27 1 35.5042 53.1816 -11.3231
28 1 35.3347 54.1165 -11.0157
29 1 35.0207 54.9677 -10.7666
30 1 34.7028 55.6938 -10.2879
31 1 34.3354 56.5672 -10.1832
32 1 33.7086 57.2825 -10.1901
ITEM: TIMESTEP
3870000
ITEM: NUMBER OF ATOMS
32
ITEM: BOX BOUNDS mm mm mm
-1.6000000000000000e+01 4.8332473254613909e+01
-1.6000000000000000e+01 5.6567270704890348e+01
-2.0194152255831249e+01 1.6000000000000000e+01
ITEM: ATOMS id type x y z
1 1 48.4983 51.5257 -19.3567
2 1 47.5635 51.5882 -19.4769
3 1 46.6509 51.8353 -19.4424
4 1 46.1212 52.4429 -19.0384
5 1 45.6137 53.1103 -18.5939
6 1 44.9895 53.8065 -18.3129
7 1 44.4709 54.5379 -17.9018
8 1 43.7069 54.9142 -17.5565
9 1 42.9382 55.3364 -17.1528
10 1 42.2239 55.7902 -16.7621
11 1 41.3166 55.977 -16.7727
12 1 40.459 56.3265 -16.5676
13 1 39.5826 56.5179 -16.6055
14 1 38.651 56.5827 -16.8953
15 1 37.7827 56.5258 -17.2904
16 1 36.9671 56.5238 -17.8296
17 1 36.103 56.56 -18.1854
18 1 35.1482 56.3993 -18.2206
19 1 34.278 56.0589 -18.0931
20 1 33.5024 55.5567 -18.3188
21 1 32.8902 54.9622 -17.881
22 1 32.4509 54.2139 -17.466
23 1 31.7731 53.6147 -17.0477
24 1 31.0977 52.9875 -16.8775
25 1 30.3386 52.4848 -16.7708
26 1 29.3902 52.2277 -16.9032
27 1 28.4789 52.2352 -17.2002
28 1 27.9513 52.0379 -17.9384
29 1 27.3648 52.2615 -18.6539
30 1 26.7482 52.3686 -19.3819
31 1 26.1122 52.845 -19.9212
32 1 25.2876 53.17 -20.3672
ITEM: TIMESTEP
3880000
ITEM: NUMBER OF ATOMS
32
ITEM: BOX BOUNDS mm mm mm
-1.6000000000000000e+01 4.9162127799057018e+01
-1.6000000000000000e+01 5.5659213703594503e+01
-1.6461548843802046e+01 1.6000000000000000e+01
ITEM: ATOMS id type x y z
1 1 49.1776 55.6525 -14.9964
2 1 48.4829 55.0804 -15.123
3 1 47.9147 54.241 -15.0138
4 1 47.1135 53.8921 -15.2027
5 1 46.175 53.765 -15.3662
6 1 45.3239 53.6399 -15.7097
7 1 44.6169 53.2459 -16.1504
8 1 43.7496 53.0044 -16.373
9 1 42.8454 52.7365 -16.4706
10 1 42.171 52.2251 -16.0824
11 1 41.3006 52.069 -15.853
12 1 40.477 52.0058 -15.4525
13 1 39.6648 52.1648 -15.2097
14 1 38.8839 52.4692 -14.8483
15 1 37.9488 52.389 -14.6296
16 1 37.1347 51.8662 -14.3225
17 1 36.3373 51.4306 -14.2195
18 1 35.4825 51.2105 -14.5371
19 1 34.6042 51.0239 -14.6103
20 1 33.8017 50.5557 -14.45
21 1 33.1418 49.8679 -14.3875
22 1 32.7127 49.0898 -14.6684
23 1 31.8582 48.8415 -14.9122
24 1 31.1076 48.7618 -15.5089
25 1 30.4086 48.3005 -15.9249
26 1 29.5741 47.7272 -15.9874
27 1 28.7485 47.2476 -16.1096
28 1 27.9324 46.8005 -15.9691
29 1 27.1963 46.341 -15.6447
30 1 26.5491 45.7107 -15.5985
31 1 25.7487 45.2216 -15.8093
32 1 25.075 44.5905 -16.0405
ITEM: TIMESTEP
3890000
ITEM: NUMBER OF ATOMS
32
ITEM: BOX BOUNDS mm mm mm
-1.6000000000000000e+01 4.6338230128193743e+01
-1.6000000000000000e+01 5.3615068649685767e+01
-1.7591631648562156e+01 1.6000000000000000e+01
ITEM: ATOMS id type x y z
1 1 46.3008 53.5552 -12.4042
2 1 45.6619 52.8765 -12.1685
3 1 45.015 52.2444 -12.1102
4 1 44.4272 51.5465 -12.0453
5 1 43.8542 50.9853 -11.476
6 1 43.098 50.5923 -11.1566
7 1 42.2523 50.3343 -10.7757
8 1 41.4063 50.1662 -10.3781
9 1 40.5447 50.3502 -10.3083
10 1 39.6343 50.508 -10.5246
11 1 38.7143 50.3233 -10.8299
12 1 37.9283 49.8254 -10.8909
13 1 37.118 49.5149 -11.2286
14 1 36.4217 48.9986 -11.4479
15 1 35.618 48.4245 -11.68
16 1 34.781 47.9413 -11.8536
17 1 34.2326 47.2331 -11.9654
18 1 33.7597 46.437 -12.0798
19 1 33.1629 45.7437 -12.3469
20 1 32.5763 45.2274 -12.7856
21 1 31.9663 45.2622 -13.5361
22 1 31.1462 45.3442 -13.9345
23 1 30.3006 45.5773 -14.3603
24 1 29.5906 45.8855 -14.9038
25 1 28.933 46.3566 -15.3695
26 1 28.4425 46.9459 -15.9122
27 1 27.8774 47.43 -16.5605
28 1 27.1986 48.0222 -16.8019
29 1 26.2765 48.368 -17.0597
30 1 25.5815 48.946 -17.3083
31 1 24.8376 49.4777 -17.4636
32 1 24.195 50.1596 -17.7278
ITEM: TIMESTEP
3900000
ITEM: NUMBER OF ATOMS
32
ITEM: BOX BOUNDS mm mm mm
-1.6000000000000000e+01 4.6708486275553049e+01
-1.6000000000000000e+01 5.1608090230620363e+01
-1.6000000000000000e+01 1.6000000000000000e+01
ITEM: ATOMS id type x y z
1 1 46.7171 47.5466 -6.90881
2 1 46.039 47.8475 -7.51257
3 1 45.3227 48.1083 -8.04786
4 1 44.416 48.2359 -8.34869
5 1 43.6078 48.3396 -8.83367
6 1 42.8028 48.4329 -9.34068
7 1 41.9832 48.7047 -9.78036
8 1 41.2167 48.9496 -10.2176
9 1 40.3457 49.0657 -10.5715
10 1 39.4719 49.2003 -10.9859
11 1 38.792 49.8084 -11.2577
12 1 38.294 50.5264 -11.5917
13 1 37.6175 51.027 -12.0411
14 1 37.083 51.3169 -12.7736
15 1 36.3101 51.485 -13.3314
16 1 35.4939 51.5584 -13.8418
17 1 34.8065 51.2493 -14.432
18 1 33.8822 51.3435 -14.4742
19 1 32.9873 51.2484 -14.2971
20 1 32.1658 51.0699 -13.9324
21 1 31.2919 50.8407 -14.0551
22 1 30.4318 50.4656 -14.0775
23 1 29.7339 49.864 -13.773
24 1 29.1092 49.3825 -13.3575
25 1 28.6088 48.5756 -13.306
26 1 27.8684 47.9527 -13.0277
27 1 27.3221 47.3635 -12.5986
28 1 26.9239 46.5303 -12.603
29 1 26.538 45.7047 -12.7944
30 1 26.083 44.8675 -12.6961
31 1 25.5382 44.0744 -12.8248
32 1 25.1295 43.2212 -13.0145
ITEM: TIMESTEP
3910000
ITEM: NUMBER OF ATOMS
32
ITEM: BOX BOUNDS mm mm mm
-1.6000000000000000e+01 4.4771345658380980e+01
-1.6000000000000000e+01 4.8826917132409257e+01
-1.6540791674593944e+01 1.6000000000000000e+01
ITEM: ATOMS id type x y z
1 1 44.6772 46.7988 0.574594
2 1 44.035 47.1171 0.0069298
3 1 43.5926 47.5902 -0.741878
4 1 43.1238 47.9704 -1.43801
5 1 42.4579 48.0165 -2.10457
6 1 42.0997 47.9061 -2.99092
7 1 41.4935 48.1764 -3.63888
8 1 40.8739 48.2119 -4.36353
9 1 40.2281 48.5865 -4.89899
10 1 39.3322 48.5459 -5.01023
11 1 38.4903 48.3512 -5.58774
12 1 37.8627 48.266 -6.27152
13 1 37.2864 47.9838 -6.98183
14 1 37.0155 47.7195 -7.82686
15 1 37.1475 47.1596 -8.63463
16 1 37.3726 46.73 -9.3823
17 1 37.5584 46.3062 -10.2564
18 1 37.404 46.0124 -11.1189
19 1 36.8976 45.5674 -11.7959
20 1 36.7446 44.9326 -12.509
21 1 36.5723 44.3695 -13.2237
22 1 36.5671 43.4125 -13.2851
23 1 36.1703 42.6544 -13.622
24 1 35.5907 41.9626 -13.8616
25 1 34.8491 41.3572 -14.028
26 1 34.0411 40.9622 -14.2034
27 1 33.1691 40.6885 -14.441
28 1 32.3698 40.6892 -14.8973
29 1 31.5686 40.8737 -15.3389
30 1 30.8337 41.0719 -15.8667
31 1 30.2559 41.2976 -16.5757
32 1 29.6091 41.52 -17.2886
ITEM: TIMESTEP
3920000
ITEM: NUMBER OF ATOMS
32
ITEM: BOX BOUNDS mm mm mm
-1.6000000000000000e+01 4.2714836078532109e+01
-1.6000000000000000e+01 4.9705099001714657e+01
-1.6000000000000000e+01 1.6000000000000000e+01
ITEM: ATOMS id type x y z
1 1 42.5468 47.6043 -4.42774
2 1 42.1948 47.3423 -5.2714
3 1 41.7606 47.0709 -6.05598
4 1 40.8508 47.0357 -6.36005
5 1 39.9207 47.182 -6.4928
6 1 39.072 47.1506 -6.79111
7 1 38.2638 47.2563 -7.28901
8 1 37.6104 47.6206 -7.91298
9 1 37.077 47.9284 -8.70875
10 1 36.4359 48.3396 -9.33023
11 1 35.7853 48.8433 -9.80024
12 1 35.055 49.2816 -10.1974
13 1 34.2047 49.3892 -10.6126
14 1 33.3502 49.5462 -10.9476
15 1 32.4386 49.6363 -11.2453
16 1 31.6026 49.6654 -11.6093
17 1 30.7557 49.3254 -11.7444
18 1 29.9198 48.7918 -11.7466
19 1 29.3838 48.0174 -11.6933
20 1 28.9584 47.2111 -11.6168
21 1 28.9927 46.3235 -11.2202
22 1 28.8299 45.3975 -11.0759
23 1 29.0298 44.4959 -10.9401
24 1 29.3334 43.6859 -10.7213
25 1 29.7462 42.846 -10.6009
26 1 30.1608 42.0879 -10.8711
27 1 30.1971 41.2195 -11.224
28 1 30.045 40.336 -11.6834
29 1 29.9105 39.6792 -12.3804
30 1 29.4285 38.9585 -12.7844
31 1 28.951 38.3603 -13.3395
32 1 28.6976 37.6773 -14.0281
ITEM: TIMESTEP
3930000
ITEM: NUMBER OF ATOMS
32
ITEM: BOX BOUNDS mm mm mm
-1.6000000000000000e+01 4.5166891673455758e+01
-1.6000000000000000e+01 4.6154425367649587e+01
-1.6000000000000000e+01 1.6000000000000000e+01
ITEM: ATOMS id type x y z
1 1 45.289 45.1549 -13.1359
2 1 44.912 44.3748 -13.4196
3 1 44.2288 43.703 -13.4966
4 1 43.6461 43.0165 -13.1789
5 1 43.0229 42.3143 -13.1175
6 1 42.6843 41.4161 -12.8951
7 1 42.2793 40.6207 -12.5786
8 1 42.211 39.7801 -12.207
9 1 42.0798 39.1698 -11.5323
10 1 41.846 38.6224 -10.8021
11 1 41.1099 38.7419 -10.2603
12 1 40.2435 38.9717 -9.91957
13 1 39.668 39.7252 -9.68148
14 1 39.0936 40.3962 -9.39952
15 1 38.4726 40.9441 -9.05747
16 1 38.0122 41.7553 -9.04018
17 1 37.4125 42.4603 -8.8187
18 1 36.8096 43.1676 -8.58613
19 1 36.1702 43.6397 -8.17488
20 1 35.6702 44.4322 -8.01532
21 1 34.8601 44.9511 -8.01463
22 1 34.0912 45.4532 -8.27005
23 1 33.278 45.8101 -8.58756
24 1 32.3521 45.9534 -8.77168
25 1 31.4337 46.1051 -8.81234
26 1 30.4698 45.9889 -8.98561
27 1 29.5673 45.7034 -9.08626
28 1 28.6122 45.6249 -9.10455
29 1 27.6693 45.5479 -9.00299
30 1 26.7346 45.7267 -8.99075
31 1 25.8986 46.0288 -9.27374
32 1 25.1476 46.6032 -9.44162
ITEM: TIMESTEP
3940000
ITEM: NUMBER OF ATOMS
32
ITEM: BOX BOUNDS mm mm mm
-1.6000000000000000e+01 4.3396830050639068e+01
-1.6000000000000000e+01 4.7700393634259484e+01
-1.6000000000000000e+01 1.6000000000000000e+01
ITEM: ATOMS id type x y z
1 1 42.5784 41.5987 -9.11064
2 1 42.3236 40.811 -9.44413
3 1 42.61 39.9464 -9.49743
4 1 42.9124 39.0721 -9.55896
5 1 43.127 38.126 -9.43727
6 1 43.3779 37.4389 -8.882
7 1 43.3759 36.5029 -8.8593
8 1 43.2947 35.6204 -8.77288
9 1 43.044 34.746 -8.54709
10 1 42.3801 33.9981 -8.44168
11 1 41.8229 33.2182 -8.42628
12 1 40.9139 33.3591 -8.62831
13 1 39.934 33.558 -8.6625
14 1 39.2863 34.2566 -8.65964
15 1 38.8305 35.0175 -8.47944
16 1 38.2983 35.792 -8.21977
17 1 37.8654 36.6724 -8.02291
18 1 37.3917 37.5448 -8.13267
19 1 36.959 38.3666 -8.31402
20 1 36.4467 39.1225 -8.53826
21 1 35.8517 39.8846 -8.67778
22 1 35.3941 40.6783 -8.85343
23 1 34.9727 41.4542 -9.16167
24 1 34.3436 42.1585 -9.34717
25 1 33.8695 42.9292 -9.54155
26 1 33.3463 43.658 -9.80604
27 1 32.8447 44.4772 -9.92513
28 1 32.1982 45.1384 -9.9942
29 1 31.5045 45.7272 -10.0256
30 1 30.9107 46.4251 -10.1425
31 1 30.1759 46.9705 -10.0701
32 1 29.629 47.6756 -10.256
ITEM: TIMESTEP
3950000
ITEM: NUMBER OF ATOMS
32
ITEM: BOX BOUNDS mm mm mm
-1.6000000000000000e+01 4.6470067248345494e+01
-1.6000000000000000e+01 4.5299829948167506e+01
-1.6000000000000000e+01 1.6000000000000000e+01
ITEM: ATOMS id type x y z
1 1 44.7869 42.2658 -14.3215
2 1 45.2251 41.6496 -13.7493
3 1 45.7101 40.9907 -13.3179
4 1 46.2019 40.3284 -12.8426
5 1 46.5698 39.7135 -12.1905
6 1 46.4267 39.2506 -11.4186
7 1 46.2795 38.6836 -10.708
8 1 45.6727 38.2858 -10.078
9 1 44.9075 38.2687 -9.52831
10 1 43.9868 38.2209 -9.4268
11 1 43.2145 38.3056 -9.94687
12 1 42.5513 37.9935 -10.502
13 1 42.0339 37.6957 -11.2913
14 1 41.4481 37.5309 -12.0265
15 1 41.0758 37.4869 -12.8554
16 1 40.328 37.6574 -13.3923
17 1 39.6156 37.9872 -13.884
18 1 38.9115 38.1635 -14.5182
19 1 38.3176 38.5117 -15.0907
20 1 37.7285 38.9268 -15.6961
21 1 37.2857 39.8251 -15.8259
22 1 37.1178 40.6767 -15.4806
23 1 37.1726 41.4861 -14.9774
24 1 37.0296 42.2658 -14.4978
25 1 36.9496 43.1247 -14.0474
26 1 36.8069 43.9628 -13.6386
27 1 36.2412 44.6067 -13.1375
28 1 35.829 44.7356 -12.3109
29 1 35.3579 44.8245 -11.4385
30 1 34.8515 45.0645 -10.6604
31 1 34.6293 45.1074 -9.79079
32 1 34.4574 45.2426 -8.86142
ITEM: TIMESTEP
3960000
ITEM: NUMBER OF ATOMS
32
ITEM: BOX BOUNDS mm mm mm
-1.6000000000000000e+01 4.4908072709543653e+01
-1.6000000000000000e+01 4.0536552832547748e+01
-2.1503049610204926e+01 1.6000000000000000e+01
ITEM: ATOMS id type x y z
1 1 42.466 37.2957 -21.4242
2 1 42.7503 36.6084 -20.8164
3 1 43.1208 36.0218 -20.1765
4 1 43.7642 35.758 -19.507
5 1 44.1019 35.1113 -18.947
6 1 44.148 34.457 -18.2728
7 1 44.264 33.631 -17.8499
8 1 44.1031 33.0598 -17.0736
9 1 44.3461 32.8863 -16.1505
10 1 44.6729 33.2979 -15.4002
11 1 44.4262 33.6661 -14.5482
12 1 43.952 34.3386 -14.0672
13 1 43.4763 34.968 -13.4826
14 1 43.0468 35.6421 -12.9681
15 1 42.7427 36.2458 -12.3436
16 1 42.1612 37.0173 -12.1013
17 1 41.3812 37.4895 -11.7898
18 1 40.5669 37.9748 -11.6774
19 1 39.7962 38.4833 -11.4178
20 1 38.8125 38.4798 -11.2628
21 1 37.9086 38.5188 -11.047
22 1 37.0497 38.6026 -10.6837
23 1 36.2054 38.9205 -10.5439
24 1 35.3597 39.2832 -10.478
25 1 34.6358 39.8161 -10.7948
26 1 33.7715 40.2146 -10.8924
27 1 32.8394 40.4189 -10.8008
28 1 31.9293 40.495 -10.8731
29 1 31.0156 40.4399 -11.0879
30 1 30.1662 40.2653 -11.457
31 1 29.5919 40.0704 -12.1427
32 1 29.1901 40.1481 -12.9658
ITEM: TIMESTEP
3970000
ITEM: NUMBER OF ATOMS
32
ITEM: BOX BOUNDS mm mm mm
-1.6000000000000000e+01 5.0909458565406460e+01
-1.6000000000000000e+01 3.9012028816829506e+01
-1.9251143491358349e+01 1.6000000000000000e+01
ITEM: ATOMS id type x y z
1 1 51.4281 37.5122 -19.0835
2 1 51.1536 37.639 -18.1835
3 1 50.8088 37.4399 -17.3661
4 1 50.265 37.0776 -16.6756
5 1 49.8383 36.4663 -16.1531
6 1 49.0879 36.1309 -15.6057
7 1 48.5499 35.4172 -15.3091
8 1 47.8018 34.817 -15.1566
9 1 47.1897 34.3101 -14.6946
10 1 46.8328 33.5223 -14.4303
11 1 46.4444 32.6975 -14.3625
12 1 45.7873 31.9725 -14.4847
13 1 44.9722 31.4467 -14.3192
14 1 44.0169 31.3752 -14.2538
15 1 43.1265 31.6248 -14.0816
16 1 42.3398 31.9822 -13.8734
17 1 41.4688 32.3004 -13.6792
18 1 40.7409 32.7046 -13.2828
19 1 40.0097 33.2363 -13.4297
20 1 39.3459 33.8191 -13.5629
21 1 38.5881 34.4341 -13.4586
22 1 37.9165 35.1085 -13.4703
23 1 37.6351 36.0434 -13.5626
24 1 37.2773 36.9251 -13.5358
25 1 36.8521 37.5504 -14.047
26 1 36.6013 38.2347 -14.6232
27 1 36.1061 38.3682 -15.4535
28 1 35.573 38.6288 -16.2147
29 1 34.836 38.6971 -16.6987
30 1 34.1712 38.7476 -17.3748
31 1 33.5485 39.0649 -18.0152
32 1 33.1396 39.1562 -18.8228
ITEM: TIMESTEP
3980000
ITEM: NUMBER OF ATOMS
32
ITEM: BOX BOUNDS mm mm mm
-1.6000000000000000e+01 4.8441706667560140e+01
-1.6000000000000000e+01 3.8727945697807606e+01
-2.0504303152294419e+01 1.6000000000000000e+01
ITEM: ATOMS id type x y z
1 1 48.4925 37.9193 -20.4209
2 1 47.5754 37.8786 -19.9766
3 1 46.887 37.8827 -19.3275
4 1 46.8418 37.8279 -18.3659
5 1 46.9277 37.7794 -17.4405
6 1 47.2691 37.5051 -16.5665
7 1 47.3982 37.1993 -15.6836
8 1 47.4008 37.1192 -14.7731
9 1 47.4501 36.8431 -13.868
10 1 47.4246 36.7776 -12.9172
11 1 47.1559 36.4053 -12.0742
12 1 46.6408 36.0832 -11.3378
13 1 45.9217 35.8771 -10.7218
14 1 45.2316 35.2986 -10.5086
15 1 44.5012 34.6998 -10.6441
16 1 43.887 34.0326 -10.4845
17 1 42.9807 33.9579 -10.2728
18 1 42.0489 33.7614 -10.2305
19 1 41.1996 34.137 -10.307
20 1 40.4535 34.7676 -10.3364
21 1 39.6238 35.1645 -10.4607
22 1 38.7791 35.4438 -10.2414
23 1 37.9601 35.8587 -9.91361
24 1 37.2261 36.2354 -9.49258
25 1 36.3438 36.4687 -9.23056
26 1 35.5121 36.8679 -9.27668
27 1 34.7185 37.4407 -9.25568
28 1 33.8156 37.7896 -9.08544
29 1 32.8941 37.9347 -8.72288
30 1 32.1882 38.5488 -8.78137
31 1 31.2757 38.3895 -8.81048
32 1 30.3692 38.2185 -8.73362
ITEM: TIMESTEP
3990000
ITEM: NUMBER OF ATOMS
32
ITEM: BOX BOUNDS mm mm mm
-1.6000000000000000e+01 4.6166443412485116e+01
-1.6000000000000000e+01 4.4362017605584121e+01
-1.6209192621147068e+01 1.6000000000000000e+01
ITEM: ATOMS id type x y z
1 1 44.8137 34.856 -16.2396
2 1 45.1045 34.9143 -15.337
3 1 45.4499 35.0277 -14.4579
4 1 45.9415 34.8589 -13.6379
5 1 46.1569 34.362 -12.8004
6 1 46.2503 34.1008 -11.9315
7 1 45.9162 33.8327 -11.0498
8 1 45.1928 33.7313 -10.3317
9 1 44.5012 33.4826 -9.71857
10 1 43.7685 33.3156 -9.12313
11 1 43.0743 32.8702 -8.65781
12 1 42.2389 32.78 -8.21306
13 1 41.3648 32.8678 -7.84077
14 1 40.5558 33.1524 -7.46987
15 1 39.9152 33.5455 -6.85823
16 1 39.5107 34.2268 -6.2913
17 1 39.0315 34.6511 -5.65229
18 1 38.5182 35.1664 -5.00852
19 1 37.924 35.8077 -4.77718
20 1 37.5369 36.6566 -4.89119
21 1 37.1655 37.494 -5.03713
22 1 36.7044 38.2678 -4.94275
23 1 36.2613 39.0811 -4.95663
24 1 35.8684 39.891 -5.05828
25 1 35.5885 40.8053 -5.26984
26 1 34.9889 41.3067 -5.74073
27 1 34.5571 41.9718 -6.22085
28 1 33.8892 42.3185 -6.78103
29 1 33.3011 42.7444 -7.35855
30 1 32.9774 43.3119 -8.04188
31 1 32.8542 43.8045 -8.82534
32 1 32.6287 44.4236 -9.47295
ITEM: TIMESTEP
4000000
ITEM: NUMBER OF ATOMS
32
ITEM: BOX BOUNDS mm mm mm
-1.6000000000000000e+01 4.1454454328068557e+01
-1.6000000000000000e+01 4.3628057297127938e+01
-2.1269669950026575e+01 1.6000000000000000e+01
ITEM: ATOMS id type x y z
1 1 39.1845 25.3592 -21.1273
2 1 38.4936 25.4236 -20.5435
3 1 37.914 26.0441 -20.0751
4 1 37.435 26.7142 -19.6052
5 1 37.0823 27.2548 -18.9146
6 1 36.9306 27.8682 -18.2401
7 1 37.2992 28.3762 -17.4591
8 1 37.6155 28.5862 -16.5785