ITEM: TIMESTEP
1960000
ITEM: NUMBER OF ATOMS
32
ITEM: BOX BOUNDS mm mm mm
-1.6000000000000000e+01 1.6000000000000000e+01
-1.6000000000000000e+01 1.6000000000000000e+01
-1.7618002274277472e+01 1.6000000000000000e+01
ITEM: ATOMS id type x y z
1 1 9.17638 -1.50848 -14.7244
2 1 8.79056 -0.663535 -14.558
3 1 7.99943 -1.151 -14.5293
4 1 7.04108 -0.976515 -14.4809
5 1 6.48148 -0.710562 -13.7695
6 1 6.36058 -0.801777 -12.8353
7 1 5.98865 -0.770541 -11.9746
8 1 6.31731 -0.572343 -11.1359
9 1 6.35185 0.353687 -10.9129
10 1 6.55636 1.24869 -10.9762
11 1 5.73089 1.36149 -10.5725
12 1 5.0229 1.4245 -11.1843
13 1 4.13802 1.52253 -11.385
14 1 3.21264 1.62703 -11.6107
15 1 2.25263 1.56067 -11.7455
16 1 2.61708 1.76726 -12.5731
17 1 2.80936 2.26117 -13.3489
18 1 3.09698 2.79086 -14.111
19 1 3.03786 3.42152 -14.8218
20 1 2.1951 3.18909 -15.1695
21 1 1.3579 3.47111 -15.5585
22 1 1.14256 4.39016 -15.3952
23 1 0.875449 5.25327 -15.6412
24 1 0.633959 5.48898 -16.5506
25 1 -0.160324 5.89705 -16.9586
26 1 -0.483571 6.70883 -17.2338
27 1 -0.76438 7.56315 -16.8472
28 1 -0.40078 8.38065 -17.2249
29 1 -0.917198 9.09462 -17.5077
30 1 -0.0658913 9.58547 -17.6146
31 1 0.540956 10.2592 -17.2634
32 1 0.537388 9.57467 -16.6449
ITEM: TIMESTEP
1970000
ITEM: NUMBER OF ATOMS
32
ITEM: BOX BOUNDS mm mm mm
-1.6000000000000000e+01 1.6000000000000000e+01
-1.6000000000000000e+01 1.6000000000000000e+01
-1.8332352717270702e+01 1.6000000000000000e+01
ITEM: ATOMS id type x y z
1 1 6.73102 4.45378 -17.7436
2 1 5.8243 4.72393 -17.8058
3 1 5.26063 4.13891 -18.329
4 1 4.89136 3.92505 -17.4377
5 1 4.86578 3.58167 -16.5517
6 1 5.26972 3.47707 -15.6325
7 1 5.28802 2.9583 -14.8831
8 1 4.60542 2.55511 -14.416
9 1 4.75011 1.6884 -14.7627
10 1 4.16691 1.36514 -15.4295
11 1 3.64749 1.26538 -16.2559
12 1 4.48699 1.68336 -16.2796
13 1 4.59665 1.03088 -16.8948
14 1 4.33906 0.227211 -16.5212
15 1 4.03028 -0.616429 -16.453
16 1 3.4354 -0.992438 -15.8227
17 1 3.40383 -0.654915 -14.9472
18 1 3.39057 -1.44649 -14.544
19 1 2.88361 -2.26104 -14.479
20 1 3.59652 -2.27976 -13.7857
21 1 4.08789 -3.18482 -13.7119
22 1 3.70625 -3.95438 -14.0784
23 1 3.09364 -4.69804 -14.272
24 1 2.54862 -5.01179 -14.9592
25 1 3.17183 -4.82532 -15.6465
26 1 4.08586 -4.83528 -15.7871
27 1 4.91352 -4.45553 -16.185
28 1 5.75949 -4.54099 -16.5874
29 1 6.02388 -5.10939 -17.2528
30 1 6.87201 -5.12446 -16.9581
31 1 7.79352 -4.85538 -17.0626
32 1 8.69122 -4.74063 -16.9097
ITEM: TIMESTEP
1980000
ITEM: NUMBER OF ATOMS
32
ITEM: BOX BOUNDS mm mm mm
-1.6000000000000000e+01 1.6000000000000000e+01
-1.6000000000000000e+01 1.6000000000000000e+01
-2.2531141754284494e+01 1.6000000000000000e+01
ITEM: ATOMS id type x y z
1 1 7.2078 0.240665 -22.5278
2 1 6.42853 0.335866 -21.9837
3 1 6.44808 0.788944 -21.1698
4 1 6.77597 1.17748 -20.4259
5 1 7.29677 0.382924 -20.4108
6 1 8.17096 0.603524 -20.4252
7 1 8.98663 0.196686 -20.5014
8 1 8.57838 -0.563029 -20.8711
9 1 8.03155 -1.21262 -21.2836
10 1 7.27464 -1.70992 -21.3371
11 1 6.3462 -2.03244 -21.3251
12 1 5.65396 -2.10927 -21.9518
13 1 4.88072 -1.7 -22.2237
14 1 4.81282 -1.9162 -21.3091
15 1 4.66743 -2.60627 -20.5806
16 1 4.12701 -3.14006 -20.0399
17 1 3.54025 -3.81611 -19.6068
18 1 4.2331 -4.49491 -19.6376
19 1 4.88239 -4.95153 -20.0594
20 1 5.75044 -5.08354 -20.3963
21 1 6.03636 -4.34551 -19.8347
22 1 6.70784 -3.99894 -19.2976
23 1 7.18574 -3.99881 -18.4339
24 1 6.53066 -4.55612 -18.1347
25 1 6.87767 -4.42987 -17.228
26 1 6.48177 -4.73407 -16.4044
27 1 5.64523 -4.35065 -16.205
28 1 5.48216 -3.79193 -15.4865
29 1 4.86298 -3.95516 -14.879
30 1 4.99224 -4.88039 -15.0822
31 1 5.18202 -5.61702 -15.6459
32 1 5.3286 -6.27151 -16.361
ITEM: TIMESTEP
1990000
ITEM: NUMBER OF ATOMS
32
ITEM: BOX BOUNDS mm mm mm
-1.6000000000000000e+01 1.6000000000000000e+01
-1.6000000000000000e+01 1.6000000000000000e+01
-2.5932232533508909e+01 1.6000000000000000e+01
ITEM: ATOMS id type x y z
1 1 10.9677 2.77258 -18.8778
2 1 10.3722 2.0561 -19.2418
3 1 10.4119 1.17857 -19.5368
4 1 10.4155 1.07875 -20.4916
5 1 10.4251 1.30417 -21.3867
6 1 10.6653 1.54399 -22.267
7 1 10.486 2.25578 -22.9304
8 1 10.2828 2.34264 -23.8567
9 1 9.63611 2.96327 -24.1611
10 1 8.99422 3.53471 -24.5493
11 1 8.1009 3.67491 -24.9733
12 1 7.92976 2.999 -25.61
13 1 7.23319 2.40726 -25.9289
14 1 7.6991 1.82603 -25.322
15 1 7.94364 1.01001 -24.8723
16 1 7.923 0.163461 -24.54
17 1 7.86697 -0.570054 -23.9565
18 1 8.08706 -1.3899 -23.5724
19 1 7.38416 -1.95233 -23.2892
20 1 7.42404 -2.74717 -23.7914
21 1 7.4519 -3.25481 -24.5318
22 1 6.59063 -3.40336 -25.0228
23 1 5.93965 -3.96516 -24.4939
24 1 4.98682 -3.92452 -24.21
25 1 4.92931 -4.84527 -24.2609
26 1 4.79427 -5.77198 -23.8214
27 1 4.74843 -6.46935 -23.1911
28 1 4.79533 -7.29828 -22.691
29 1 4.51868 -8.04974 -22.2028
30 1 3.83949 -8.55709 -21.8228
31 1 3.31742 -9.33288 -21.5224
32 1 2.48178 -9.17081 -21.927
ITEM: TIMESTEP
2000000
ITEM: NUMBER OF ATOMS
32
ITEM: BOX BOUNDS mm mm mm
-1.6000000000000000e+01 1.6000000000000000e+01
-1.6000000000000000e+01 1.6000000000000000e+01
-2.5336650113087288e+01 1.6000000000000000e+01
ITEM: ATOMS id type x y z
1 1 7.33445 4.69788 -15.5707
2 1 7.2925 5.55122 -15.8764
3 1 7.45932 6.27427 -16.4348
4 1 6.78688 5.97884 -17.0757
5 1 5.99837 5.92315 -17.5973
6 1 6.16188 5.19108 -18.1949
7 1 5.74315 4.92674 -19.0012
8 1 5.55856 4.79754 -19.9239
9 1 5.20086 4.30261 -20.6367
10 1 6.18653 4.1323 -20.44
11 1 6.13263 3.32996 -19.9857
12 1 6.05881 2.81864 -19.2121
13 1 6.14768 1.90174 -19.0067
14 1 5.32606 1.87754 -18.5902
15 1 4.54863 1.34335 -18.5119
16 1 3.95342 1.07201 -19.1322
17 1 4.269 1.31907 -20.0043
18 1 4.73484 1.1505 -20.7622
19 1 5.30082 1.24688 -21.4836
20 1 5.55869 0.434224 -21.781
21 1 6.04759 -0.266747 -22.1246
22 1 6.41451 -0.958966 -21.5977
23 1 6.95727 -1.67052 -21.8193
24 1 7.22034 -2.51703 -21.4888
25 1 6.34157 -2.56042 -21.7907
26 1 5.58398 -2.96185 -22.2586
27 1 5.71602 -3.16171 -23.1999
28 1 5.6888 -3.36393 -24.0811
29 1 5.91208 -3.18374 -24.9696
30 1 6.73603 -2.89059 -25.3333
31 1 6.49544 -2.08202 -24.9166
32 1 6.1461 -1.25659 -24.7081
ITEM: TIMESTEP
2010000
ITEM: NUMBER OF ATOMS
32
ITEM: BOX BOUNDS mm mm mm
-1.6000000000000000e+01 1.6000000000000000e+01
-1.6000000000000000e+01 1.6000000000000000e+01
-2.5590862616458281e+01 1.6000000000000000e+01
ITEM: ATOMS id type x y z
1 1 4.19035 7.76297 -23.6291
2 1 4.91169 7.05787 -23.8084
3 1 5.09278 6.82788 -24.706
4 1 5.93062 7.25406 -24.8922
5 1 6.68632 6.62362 -24.9718
6 1 6.56182 5.70672 -24.741
7 1 6.04581 4.98029 -24.469
8 1 6.21641 4.97695 -23.5856
9 1 5.49617 5.22993 -22.9918
10 1 4.96966 5.42412 -23.8564
11 1 4.21303 5.81776 -24.2125
12 1 3.26992 5.68226 -24.0153
13 1 2.48898 5.23902 -23.5284
14 1 1.52569 5.04842 -23.4112
15 1 0.633254 5.08594 -23.4933
16 1 0.277334 4.2165 -23.5705
17 1 0.517998 3.80097 -22.796
18 1 0.518687 2.95282 -22.3417
19 1 0.773464 2.07284 -22.0504
20 1 1.30106 1.4544 -21.6092
21 1 1.93476 0.790826 -21.8225
22 1 1.89168 0.28182 -22.6086
23 1 1.82632 -0.316561 -23.3201
24 1 2.38691 -0.948724 -23.8526
25 1 2.66435 -0.96895 -24.7163
26 1 2.76591 -0.628614 -25.5875
27 1 3.08115 0.203753 -25.2382
28 1 3.88665 -0.0989923 -24.6043
29 1 4.17617 -0.845926 -24.04
30 1 4.65467 -1.04003 -23.2694
31 1 4.87495 -0.174866 -23.4417
32 1 4.83428 0.204905 -24.2869
ITEM: TIMESTEP
2020000
ITEM: NUMBER OF ATOMS
32
ITEM: BOX BOUNDS mm mm mm
-1.6000000000000000e+01 1.6000000000000000e+01
-1.6000000000000000e+01 1.6000000000000000e+01
-2.6568723657912113e+01 1.6000000000000000e+01
ITEM: ATOMS id type x y z
1 1 -0.957122 2.76898 -26.5654
2 1 -0.616856 2.63439 -25.7161
3 1 -0.57437 3.10409 -24.8804
4 1 -0.242378 3.92925 -25.1605
5 1 0.430772 4.59935 -25.1734
6 1 0.686334 5.47534 -25.3691
7 1 0.691361 5.40142 -24.4096
8 1 0.895094 5.1758 -23.5176
9 1 1.10913 4.93017 -22.6367
10 1 1.65766 5.4277 -22.0991
11 1 2.36987 6.02523 -22.3108
12 1 2.957 6.35228 -22.9062
13 1 2.49654 6.14968 -23.7192
14 1 3.26438 6.27338 -24.2443
15 1 3.61631 6.094 -25.0711
16 1 3.49913 5.51391 -25.8324
17 1 3.19366 4.7058 -26.0615
18 1 2.23783 4.48698 -26.0313
19 1 1.86953 4.24013 -25.178
20 1 1.82329 3.37829 -24.7929
21 1 1.36944 3.00229 -24.0952
22 1 1.12939 2.49551 -23.342
23 1 0.518179 1.89914 -23.7214
24 1 -0.338308 1.59994 -23.8855
25 1 -0.451584 1.36462 -22.9731
26 1 -1.20666 1.23354 -23.4716
27 1 -1.6735 1.44967 -24.2234
28 1 -1.29114 0.935261 -24.9374
29 1 -1.1739 0.104088 -25.3685
30 1 -0.734155 -0.705448 -25.0009
31 1 -0.0735623 -1.33772 -24.6532
32 1 0.402904 -2.11323 -24.5278
ITEM: TIMESTEP
2030000
ITEM: NUMBER OF ATOMS
32
ITEM: BOX BOUNDS mm mm mm
-1.6000000000000000e+01 1.6000000000000000e+01
-1.6000000000000000e+01 1.6000000000000000e+01
-3.0881593223778324e+01 1.6000000000000000e+01
ITEM: ATOMS id type x y z
1 1 -0.766563 2.65887 -25.6199
2 1 -1.57096 2.24531 -25.8495
3 1 -2.52132 1.91798 -25.4939
4 1 -3.26463 2.50165 -25.3313
5 1 -3.53427 3.30394 -25.6817
6 1 -3.04456 4.105 -25.9334
7 1 -2.82274 4.92747 -25.5421
8 1 -2.17018 5.26606 -26.099
9 1 -1.90204 5.99543 -26.64
10 1 -1.31317 6.63657 -26.9284
11 1 -1.66301 7.28286 -26.3939
12 1 -1.80222 7.44581 -25.5135
13 1 -2.29481 6.90356 -24.9578
14 1 -2.73437 6.34068 -25.5768
15 1 -3.34363 6.41246 -26.263
16 1 -3.01578 6.74148 -27.0503
17 1 -2.80225 7.33724 -27.77
18 1 -3.20596 7.64931 -28.5882
19 1 -3.44371 6.96151 -29.188
20 1 -2.63907 6.43769 -29.2519
21 1 -1.97276 6.3233 -29.8948
22 1 -1.22458 5.72602 -29.7403
23 1 -0.925528 4.84017 -29.3655
24 1 -0.256156 4.14969 -29.3664
25 1 0.608372 4.00357 -29.1523
26 1 0.711813 3.50917 -29.9905
27 1 0.555209 2.60415 -30.2192
28 1 -0.28551 2.15617 -30.0586
29 1 -0.802259 1.58671 -30.5774
30 1 -1.31218 0.880561 -30.8782
31 1 -1.60898 0.699368 -30.0306
32 1 -1.24663 0.675856 -29.123
ITEM: TIMESTEP
2040000
ITEM: NUMBER OF ATOMS
32
ITEM: BOX BOUNDS mm mm mm
-1.6000000000000000e+01 1.6000000000000000e+01
-1.6000000000000000e+01 1.6000000000000000e+01
-2.9862321466469179e+01 1.6000000000000000e+01
ITEM: ATOMS id type x y z
1 1 -6.48111 6.64626 -24.8451
2 1 -5.69981 6.84015 -25.318
3 1 -5.04294 6.95535 -25.9401
4 1 -4.50327 6.84325 -26.7442
5 1 -4.22875 6.37731 -27.5337
6 1 -4.39953 6.34791 -28.458
7 1 -4.94012 6.50745 -29.1762
8 1 -4.3725 6.13889 -29.859
9 1 -3.60563 5.94548 -29.2963
10 1 -3.18033 5.91134 -28.4228
11 1 -2.91074 5.90904 -27.5243
12 1 -2.18403 5.61108 -27.0174
13 1 -1.59083 5.39973 -26.3172
14 1 -1.17448 5.97768 -25.7368
15 1 -0.358289 6.42965 -25.5123
16 1 0.327029 7.12955 -25.6258
17 1 1.0862 7.59228 -25.8805
18 1 1.84977 7.63811 -26.4196
19 1 2.18214 7.94448 -27.187
20 1 3.06028 8.17898 -27.3752
21 1 3.40723 9.02703 -27.6013
22 1 3.40867 9.92566 -27.3804
23 1 2.66472 10.5036 -27.2198
24 1 2.85185 11.3573 -26.8636
25 1 2.4635 11.3616 -25.9749
26 1 1.61094 11.2539 -25.5632
27 1 0.824308 11.3999 -25.0767
28 1 0.216267 11.1912 -24.3887
29 1 0.51674 11.0424 -23.4975
30 1 0.624851 11.5015 -22.6472
31 1 0.52051 12.0513 -21.8755
32 1 -0.0974101 12.4757 -21.3353
ITEM: TIMESTEP
2050000
ITEM: NUMBER OF ATOMS
32
ITEM: BOX BOUNDS mm mm mm
-1.6000000000000000e+01 1.6000000000000000e+01
-1.6000000000000000e+01 1.6000000000000000e+01
-3.2310727391459217e+01 1.6000000000000000e+01
ITEM: ATOMS id type x y z
1 1 -1.97033 12.4573 -31.1069
2 1 -1.15357 12.3778 -31.5368
3 1 -1.14927 11.6811 -32.1029
4 1 -1.1057 10.7864 -32.2777
5 1 -0.226961 10.3951 -32.3074
6 1 0.651151 10.3637 -31.9436
7 1 1.09183 10.304 -31.0601
8 1 1.23849 10.3762 -30.1372
9 1 1.17043 9.76294 -29.4394
10 1 0.591279 9.8039 -28.6737
11 1 0.203164 10.4039 -28.0707
12 1 0.274381 11.0852 -27.5182
13 1 -0.0893255 11.2816 -26.5962
14 1 -0.83517 11.5643 -26.0863
15 1 -0.37034 11.9444 -25.2929
16 1 0.332188 12.0864 -24.6864
17 1 0.384416 11.517 -23.8476
18 1 0.128624 11.383 -22.9235
19 1 -0.482602 11.4682 -22.2054
20 1 -0.731818 11.8992 -21.3837
21 1 -0.572973 12.5311 -20.7107
22 1 0.0656106 13.1386 -20.4097
23 1 0.705103 13.1641 -19.7263
24 1 0.651714 12.7483 -18.8945
25 1 1.44483 12.2459 -18.5747
26 1 1.96146 12.4794 -17.8169
27 1 2.68126 12.9665 -17.5265
28 1 3.1678 12.7792 -16.7647
29 1 3.96013 12.65 -17.1877
30 1 4.34376 13.2931 -16.5476
31 1 4.66485 14.0941 -16.2377
32 1 4.57859 14.9662 -15.8938
ITEM: TIMESTEP
2060000
ITEM: NUMBER OF ATOMS
32
ITEM: BOX BOUNDS mm mm mm
-1.6000000000000000e+01 1.6000000000000000e+01
-1.6000000000000000e+01 1.9451212165844900e+01
-2.7983004279172800e+01 1.6000000000000000e+01
ITEM: ATOMS id type x y z
1 1 7.45543 9.95951 -27.0921
2 1 6.55353 9.97319 -27.1754
3 1 5.89507 9.40624 -27.4943
4 1 4.92064 9.77216 -27.5321
5 1 4.19811 9.53656 -26.9498
6 1 3.373 9.84363 -27.2729
7 1 2.81127 10.522 -27.0227
8 1 2.23971 11.2694 -27.1544
9 1 1.89584 12.1224 -27.0819
10 1 1.75014 12.9664 -26.6624
11 1 1.48493 13.8249 -26.7017
12 1 1.40867 14.5227 -27.4221
13 1 1.54898 15.2846 -27.9796
14 1 1.30866 16.0935 -27.5606
15 1 0.935913 16.7807 -27.1016
16 1 0.889711 17.5242 -26.4205
17 1 0.250879 17.9518 -25.766
18 1 0.595185 18.5831 -25.1875
19 1 0.326115 18.4795 -24.2768
20 1 -0.25534 18.283 -23.5665
21 1 -0.195976 19.1828 -23.0895
22 1 -0.72209 19.448 -22.3489
23 1 -1.18036 18.6287 -21.9731
24 1 -1.08973 18.1236 -21.1507
25 1 -1.16326 17.3308 -20.6024
26 1 -1.26348 16.5217 -20.1066
27 1 -1.07965 15.7452 -19.6099
28 1 -0.237474 15.297 -19.7554
29 1 0.55462 15.8094 -19.7953
30 1 1.22974 16.4818 -19.5941
31 1 1.00458 17.0143 -18.8619
32 1 0.990701 16.9172 -17.9271
ITEM: TIMESTEP
2070000
ITEM: NUMBER OF ATOMS
32
ITEM: BOX BOUNDS mm mm mm
-1.6000000000000000e+01 1.6000000000000000e+01
-1.6000000000000000e+01 2.0344912882034112e+01
-2.4266407506802306e+01 1.6000000000000000e+01
ITEM: ATOMS id type x y z
1 1 -1.9532 9.66555 -23.5633
2 1 -1.98978 10.3385 -24.263
3 1 -2.3447 11.1227 -23.7116
4 1 -2.01835 12.0537 -23.8663
5 1 -1.3051 12.3653 -23.3504
6 1 -0.504485 12.3592 -23.8159
7 1 -0.198528 13.2149 -23.6572
8 1 0.119815 13.1017 -22.7686
9 1 0.0875048 13.7271 -22.0226
10 1 0.834615 14.2089 -22.4273
11 1 1.55355 13.9392 -21.8078
12 1 1.67472 13.9226 -20.9093
13 1 1.56959 14.7626 -20.5022
14 1 1.51387 15.6419 -20.1588
15 1 1.4857 16.4895 -19.7489
16 1 1.58191 17.3597 -19.4557
17 1 0.813597 17.7533 -19.2212
18 1 -0.134275 17.9136 -19.1499
19 1 -0.440047 18.4245 -18.4799
20 1 -1.36826 18.6142 -18.3325
21 1 -1.91009 19.3108 -18.0744
22 1 -2.12123 19.9264 -17.3548
23 1 -2.72395 19.7529 -16.5694
24 1 -2.3492 19.2774 -15.8761
25 1 -1.83719 18.5303 -15.4919
26 1 -2.13603 18.9908 -14.7122
27 1 -1.98086 19.8367 -14.2662
28 1 -1.48817 20.3417 -13.6962
29 1 -0.600032 19.9085 -13.7086
30 1 0.0238875 19.1744 -13.4921
31 1 -0.0972157 18.3077 -13.8944
32 1 0.40626 18.3074 -14.7023
ITEM: TIMESTEP
2080000
ITEM: NUMBER OF ATOMS
32
ITEM: BOX BOUNDS mm mm mm
-1.6000000000000000e+01 1.6000000000000000e+01
-1.6000000000000000e+01 2.1639643827961919e+01
-2.6834127268976093e+01 1.6000000000000000e+01
ITEM: ATOMS id type x y z
1 1 -1.08242 21.0656 -24.3063
2 1 -1.20782 21.0119 -25.2273
3 1 -1.15642 21.6364 -25.8747
4 1 -0.426017 21.1985 -26.3558
5 1 0.0352259 20.4897 -26.7019
6 1 -0.0056329 19.5294 -26.8308
7 1 0.360686 18.6892 -26.7216
8 1 0.97722 18.351 -26.0859
9 1 1.16532 17.9206 -25.2668
10 1 1.41647 17.7372 -24.3697
11 1 1.57898 17.8781 -23.4517
12 1 2.43768 18.081 -23.2468
13 1 3.10165 18.5937 -22.7727
14 1 2.42827 18.5481 -22.158
15 1 2.17451 18.4941 -21.2554
16 1 1.49474 18.8944 -20.7323
17 1 1.44981 19.7695 -21.0529
18 1 1.5572 20.176 -20.186
19 1 1.69243 19.6962 -19.3244
20 1 2.02843 19.8401 -18.4005
21 1 1.41777 19.3211 -17.8917
22 1 0.782605 18.78 -17.4324
23 1 0.194265 18.1092 -17.0958
24 1 -0.606157 17.6825 -17.1746
25 1 -1.03863 17.125 -16.573
26 1 -1.70139 17.5849 -16.0086
27 1 -2.57863 17.7622 -15.7519
28 1 -2.51628 17.9821 -14.8482
29 1 -3.13877 18.4037 -14.2399
30 1 -3.79824 18.9807 -14.5686
31 1 -3.04434 19.4224 -14.1412
32 1 -2.95045 19.263 -13.2421
ITEM: TIMESTEP
2090000
ITEM: NUMBER OF ATOMS
32
ITEM: BOX BOUNDS mm mm mm
-1.6000000000000000e+01 1.6000000000000000e+01
-1.6000000000000000e+01 1.8086136098934364e+01
-2.3923849781979012e+01 1.6000000000000000e+01
ITEM: ATOMS id type x y z
1 1 4.50483 14.8448 -23.9205
2 1 5.14997 14.8863 -23.2462
3 1 5.36413 15.3384 -22.4534
4 1 5.28134 16.2709 -22.4931
5 1 4.79847 16.6 -21.778
6 1 4.41715 16.8687 -20.9202
7 1 4.28985 16.5743 -20.0135
8 1 5.01375 16.4693 -19.3226
9 1 4.93845 16.7403 -18.4703
10 1 4.76816 16.9982 -17.617
11 1 4.02946 16.4632 -17.7044
12 1 4.2985 15.596 -17.7379
13 1 4.0103 15.1897 -18.4891
14 1 3.54855 14.7642 -19.186
15 1 2.66565 14.9059 -19.3102
16 1 2.1967 15.7036 -19.567
17 1 1.31413 15.9826 -19.5609
18 1 0.583346 16.4334 -19.1082
19 1 -0.282518 16.7838 -18.8772
20 1 -1.07311 16.5829 -19.3863
21 1 -1.22632 17.2501 -20.0916
22 1 -1.16707 17.7735 -20.8747
23 1 -0.677372 18.0829 -21.6046
24 1 -0.0392263 18.0435 -22.3089
25 1 -0.907722 17.7595 -22.6125
26 1 -1.78909 17.6634 -22.9207
27 1 -2.40176 17.364 -22.241
28 1 -2.84345 16.5774 -22.5729
29 1 -3.30052 16.0905 -23.3046
30 1 -3.98172 16.313 -22.6441
31 1 -4.38014 16.5989 -21.8372
32 1 -4.30777 16.5961 -20.8709
ITEM: TIMESTEP
2100000
ITEM: NUMBER OF ATOMS
32
ITEM: BOX BOUNDS mm mm mm
-1.6000000000000000e+01 1.6000000000000000e+01
-1.6000000000000000e+01 2.5211711457444910e+01
-2.6282460488187979e+01 1.6000000000000000e+01
ITEM: ATOMS id type x y z
1 1 1.62492 16.0397 -26.2791
2 1 2.25492 16.6548 -25.9752
3 1 2.28231 17.4803 -25.4563
4 1 2.45285 18.098 -24.8224
5 1 1.81591 18.6076 -24.2647
6 1 1.03738 18.454 -23.8492
7 1 0.475142 19.0868 -23.4236
8 1 0.511417 19.6061 -22.6517
9 1 0.577533 20.2239 -22.0068
10 1 1.38608 20.5899 -21.9357
11 1 2.18291 21.0506 -21.7558
12 1 1.49906 21.7215 -21.7532
13 1 1.22596 21.6058 -22.5994
14 1 0.298407 21.7884 -22.6943
15 1 -0.535816 22.0385 -23.0665
16 1 -1.4812 22.1171 -23.0848
17 1 -1.99802 22.6628 -23.6077
18 1 -2.7539 23.1436 -23.3169
19 1 -3.07795 23.191 -22.4165
20 1 -3.39846 22.8951 -21.5367
21 1 -3.35307 21.9945 -21.2287
22 1 -3.93883 21.8817 -20.4692
23 1 -4.77502 22.0472 -20.061
24 1 -5.60274 22.4238 -19.9461
25 1 -6.17773 23.078 -20.2377
26 1 -6.03879 23.4408 -21.0942
27 1 -5.56216 23.5755 -21.9063
28 1 -4.86352 24.1288 -21.9254
29 1 -4.28013 24.8337 -22.0001
30 1 -3.37355 24.6722 -22.1783
31 1 -2.48965 24.4875 -22.366
32 1 -1.89476 25.2085 -22.5457
ITEM: TIMESTEP
2110000
ITEM: NUMBER OF ATOMS
32
ITEM: BOX BOUNDS mm mm mm
-1.6000000000000000e+01 1.6000000000000000e+01
-1.6000000000000000e+01 2.6688026318367566e+01
-2.4988909740850477e+01 1.6000000000000000e+01
ITEM: ATOMS id type x y z
1 1 -0.278352 17.7943 -24.185
2 1 -0.894728 17.9108 -23.455
3 1 -1.33911 17.5897 -22.6261
4 1 -2.11728 17.2219 -22.2555
5 1 -2.15581 17.4277 -21.3167
6 1 -2.0116 17.046 -20.4745
7 1 -1.08128 17.0502 -20.3555
8 1 -0.727099 17.735 -20.8192
9 1 -1.15005 18.3599 -21.3859
10 1 -1.1075 19.1545 -20.9453
11 1 -0.904603 20.08 -20.9318
12 1 -1.50101 20.6208 -21.4743
13 1 -1.24399 20.3605 -22.2943
14 1 -0.752242 20.611 -23.0994
15 1 -0.55818 21.5513 -23.1609
16 1 -0.337503 22.2781 -22.6582
17 1 -0.825657 22.4611 -21.846
18 1 -1.71475 22.5981 -21.722
19 1 -2.61033 22.5515 -21.4522
20 1 -3.22373 22.1244 -20.8966
21 1 -4.15084 22.1262 -21.0384
22 1 -4.40221 21.5581 -21.6763
23 1 -4.69641 21.9922 -22.4971
24 1 -5.41421 22.6334 -22.7415
25 1 -6.0082 23.3577 -23.0187
26 1 -6.81042 23.7949 -23.2994
27 1 -7.54425 24.3463 -23.5644
28 1 -7.93293 25.0491 -24.0203
29 1 -8.6449 25.3127 -24.5338
30 1 -9.4954 25.4802 -24.9855
31 1 -10.0657 26.2163 -24.9111
32 1 -10.8655 26.6848 -24.7516
ITEM: TIMESTEP
2120000
ITEM: NUMBER OF ATOMS
32
ITEM: BOX BOUNDS mm mm mm
-1.6000000000000000e+01 1.6000000000000000e+01
-1.6000000000000000e+01 2.5326237070708103e+01
-2.4081049676949657e+01 1.6000000000000000e+01
ITEM: ATOMS id type x y z
1 1 0.542478 15.515 -18.7612
2 1 0.15443 15.6884 -19.5849
3 1 -0.733728 15.8232 -19.8945
4 1 -1.4241 15.2079 -19.9498
5 1 -2.18201 15.5658 -20.5605
6 1 -2.37917 15.4719 -21.4593
7 1 -2.38809 15.9809 -22.2577
8 1 -2.35393 16.7003 -22.8304
9 1 -2.68221 16.9934 -23.6497
10 1 -3.33876 17.5277 -24.0777
11 1 -3.05768 18.3721 -23.8516
12 1 -2.6396 18.7721 -23.1374
13 1 -2.19239 19.5812 -22.8697
14 1 -1.87367 20.2124 -22.2423
15 1 -1.42184 20.9246 -21.8757
16 1 -0.743177 21.4739 -21.5812
17 1 -0.615983 21.7033 -20.7179
18 1 -0.638586 22.5773 -20.4123
19 1 -0.935597 23.4195 -20.2611
20 1 -1.16339 24.3406 -20.181
21 1 -0.922241 25.223 -20.1202
22 1 -1.64908 25.0888 -20.7082
23 1 -2.56661 25.1664 -21.0062
24 1 -3.45051 25.1588 -20.7335
25 1 -4.20725 24.5406 -20.5531
26 1 -5.15196 24.6176 -20.4766
27 1 -6.03583 24.5292 -20.382
28 1 -5.774 24.0897 -19.5869
29 1 -5.05784 24.3613 -19.0461
30 1 -4.61805 24.9297 -18.3908
31 1 -3.77573 24.948 -17.9149
32 1 -2.97736 25.323 -17.5193
ITEM: TIMESTEP
2130000
ITEM: NUMBER OF ATOMS
32
ITEM: BOX BOUNDS mm mm mm
-1.6000000000000000e+01 1.6000000000000000e+01
-1.6000000000000000e+01 2.4727654121145012e+01
-2.9719306448160093e+01 1.6000000000000000e+01
ITEM: ATOMS id type x y z
1 1 -5.12244 19.5823 -29.7159
2 1 -5.60301 18.8583 -29.3222
3 1 -5.17051 18.2508 -28.6354
4 1 -4.96465 18.0286 -27.6849
5 1 -4.49639 17.7521 -26.887
6 1 -3.49411 17.6295 -26.9177
7 1 -3.29153 18.2099 -26.1499
8 1 -3.06328 18.8538 -25.468
9 1 -2.86196 18.0124 -25.2115
10 1 -2.88146 17.7701 -24.3059
11 1 -2.54448 17.311 -23.5686
12 1 -2.12084 17.3901 -22.7458
13 1 -1.31608 17.5883 -23.2073
14 1 -0.418295 17.4928 -23.2578
15 1 0.24713 18.1464 -23.1411
16 1 0.932474 18.7267 -23.318
17 1 1.31537 19.4885 -23.7794
18 1 0.509593 19.7632 -24.237
19 1 0.869599 20.4615 -24.7626
20 1 1.58189 20.9254 -24.3055
21 1 2.05631 20.9945 -23.4547
22 1 2.80823 21.1385 -22.8728
23 1 2.91512 22.0547 -22.5606
24 1 2.86369 22.912 -22.1975
25 1 2.73105 22.938 -21.28
26 1 2.60833 23.4488 -20.4789
27 1 2.49192 23.6405 -19.6198
28 1 1.71185 23.2239 -19.7913
29 1 0.855137 23.7298 -19.7527
30 1 0.648851 23.9456 -20.6129
31 1 0.313418 24.6754 -21.1075
32 1 1.0447 24.7245 -21.7642
ITEM: TIMESTEP
2140000
ITEM: NUMBER OF ATOMS
32
ITEM: BOX BOUNDS mm mm mm
-1.6000000000000000e+01 1.6000000000000000e+01
-1.6000000000000000e+01 2.5837133329387026e+01
-2.4490587718549460e+01 1.6000000000000000e+01
ITEM: ATOMS id type x y z
1 1 2.03884 13.5119 -24.4872
2 1 1.92256 14.4557 -24.4524
3 1 2.1593 15.1103 -23.8004
4 1 2.91469 15.71 -23.76
5 1 2.07502 15.9038 -23.2372
6 1 1.22203 15.6625 -22.9337
7 1 0.31388 15.5235 -22.6674
8 1 -0.611806 15.7941 -22.6219
9 1 -1.40262 16.1431 -22.2985
10 1 -1.60895 16.7578 -22.9817
11 1 -2.10303 17.3673 -23.5048
12 1 -2.16446 18.2852 -23.6872
13 1 -2.65062 19.065 -23.8357
14 1 -2.78389 19.9836 -23.7951
15 1 -2.58121 20.8901 -23.5424
16 1 -3.12481 21.6394 -23.322
17 1 -2.27023 21.8298 -23.0331
18 1 -1.38997 21.9174 -22.6634
19 1 -0.465449 21.9499 -22.3148
20 1 -0.328832 22.6662 -21.7253
21 1 -0.00403308 22.9826 -20.9182
22 1 0.187347 23.7278 -20.4005
23 1 0.823158 24.4517 -20.1668
24 1 1.33193 25.2333 -20.1823
25 1 2.01213 25.5793 -20.7138
26 1 2.21334 25.8339 -21.5621
27 1 1.93791 25.342 -22.3191
28 1 2.17814 24.5386 -22.5969
29 1 2.17649 23.6199 -22.5134
30 1 2.85053 23.3098 -23.0983
31 1 2.96759 23.8465 -23.8957
32 1 2.78433 24.7309 -23.8896
ITEM: TIMESTEP
2150000
ITEM: NUMBER OF ATOMS
32
ITEM: BOX BOUNDS mm mm mm
-1.6000000000000000e+01 1.6000000000000000e+01
-1.6000000000000000e+01 1.9694006296888372e+01
-3.0780911165756230e+01 1.6000000000000000e+01
ITEM: ATOMS id type x y z
1 1 5.32642 17.6406 -17.6372
2 1 4.39724 17.3889 -17.8932
3 1 3.75283 17.6829 -18.5262
4 1 4.02119 18.5358 -18.854
5 1 3.90512 19.4445 -19.1749
6 1 3.61642 19.6908 -20.0468
7 1 3.18723 19.3824 -20.7939
8 1 2.53814 18.9518 -21.2883
9 1 2.78419 18.0952 -21.7101
10 1 2.85839 17.3787 -22.3431
11 1 2.70856 17.9011 -23.1304
12 1 3.6369 17.5315 -23.2214
13 1 4.15497 16.7315 -23.1846
14 1 4.48564 16.3234 -23.9756
15 1 4.89958 15.5709 -24.4144
16 1 5.68967 15.9455 -23.9647
17 1 5.97007 16.5624 -24.6201
18 1 6.18742 17.1737 -25.3092
19 1 6.19561 17.8793 -25.9588
20 1 6.68642 18.662 -26.016
21 1 6.76892 19.5957 -25.8932
22 1 7.59933 19.3785 -26.3096
23 1 7.41972 18.9565 -27.0862
24 1 7.62089 18.5962 -27.9182
25 1 7.74494 18.1951 -28.7951
26 1 7.33948 17.5531 -29.2715
27 1 7.20869 17.717 -30.1729
28 1 6.85477 18.3039 -30.7775
29 1 7.83831 18.2934 -30.7638
30 1 8.50881 17.6865 -30.7159
31 1 8.7434 17.5946 -29.805
32 1 9.36554 17.0188 -29.4052
ITEM: TIMESTEP
2160000
ITEM: NUMBER OF ATOMS
32
ITEM: BOX BOUNDS mm mm mm
-1.6000000000000000e+01 1.6000000000000000e+01
-1.6000000000000000e+01 1.8415185743588818e+01
-2.6677341036609015e+01 1.6000000000000000e+01
ITEM: ATOMS id type x y z
1 1 3.05688 14.834 -19.6964
2 1 3.6376 15.6045 -19.691
3 1 4.02936 16.1745 -19.1238
4 1 3.94334 16.9554 -18.7082
5 1 3.79486 17.7173 -19.2269
6 1 3.90526 18.412 -19.8529
7 1 3.83352 17.9792 -20.7359
8 1 3.55504 17.9557 -21.6396
9 1 4.29063 17.5095 -22.0682
10 1 5.10309 17.6031 -22.4623
11 1 5.53154 16.8063 -22.777
12 1 5.98187 16.0203 -22.5153
13 1 6.49826 15.2663 -22.738
14 1 6.31454 14.695 -23.3969
15 1 6.70191 14.045 -23.9767
16 1 7.06263 13.6782 -24.7833
17 1 7.45874 12.8278 -24.623
18 1 7.01825 12.0034 -24.4246
19 1 6.95869 11.0613 -24.4202
20 1 6.70627 11.5007 -25.2587
21 1 6.5023 12.3671 -25.6247
22 1 6.5999 13.0162 -26.3043
23 1 5.81133 13.2064 -26.674
24 1 5.40584 12.3809 -26.3415
25 1 4.94927 11.6448 -25.9677
26 1 5.04484 10.6859 -26.0479
27 1 4.92602 9.70727 -26.0314
28 1 4.46601 9.00458 -26.3787
29 1 5.20957 8.44845 -26.5548
30 1 6.08234 7.95191 -26.6044
31 1 6.76611 7.84717 -25.937
32 1 7.64516 7.615 -26.3112
ITEM: TIMESTEP
2170000
ITEM: NUMBER OF ATOMS
32
ITEM: BOX BOUNDS mm mm mm
-1.6000000000000000e+01 1.6000000000000000e+01
-1.6000000000000000e+01 2.0078464778460152e+01
-2.6239277937761397e+01 1.6000000000000000e+01
ITEM: ATOMS id type x y z
1 1 2.76905 20.0753 -22.1275
2 1 2.15414 19.4295 -21.8141
3 1 1.28052 18.973 -21.8557
4 1 0.392364 19.1429 -21.8615
5 1 -0.341533 18.8482 -22.3287
6 1 -0.175592 18.6904 -23.2421
7 1 0.330965 17.9968 -23.7215
8 1 0.249552 17.057 -23.8586
9 1 0.867258 16.3108 -23.9021
10 1 1.07307 16.5474 -23.0303
11 1 1.46233 16.2276 -22.1985
12 1 2.21295 15.5931 -22.2098
13 1 2.88842 15.0355 -22.3985
14 1 3.22916 14.2475 -22.8282
15 1 2.96112 14.7608 -23.546
16 1 3.68926 14.6075 -24.1212
17 1 3.82252 13.8776 -24.7563
18 1 4.64947 13.5075 -25.1956
19 1 5.18356 12.7552 -25.4678
20 1 5.98876 12.4584 -25.2006
21 1 6.66287 11.8448 -24.939
22 1 7.5368 11.6777 -24.6858
23 1 8.37649 11.8415 -25.1266
24 1 8.94053 12.4383 -25.6594
25 1 9.8406 12.2771 -25.9873
26 1 10.1952 11.4719 -26.2359
27 1 10.357 10.495 -25.9788
28 1 10.0619 10.4333 -25.0785
29 1 9.83601 9.54397 -25.0489
30 1 10.1136 8.82968 -24.5295
31 1 10.4178 8.04562 -24.0906
32 1 11.1546 7.88343 -23.5379
ITEM: TIMESTEP
2180000
ITEM: NUMBER OF ATOMS
32
ITEM: BOX BOUNDS mm mm mm
-1.6000000000000000e+01 1.6000000000000000e+01
-1.6000000000000000e+01 2.3834887694776071e+01
-2.2368255389913152e+01 1.6000000000000000e+01
ITEM: ATOMS id type x y z
1 1 10.9589 23.8317 -15.1571
2 1 10.1169 23.4386 -15.2812
3 1 9.39466 23.0902 -15.6998
4 1 8.78272 22.397 -15.8721
5 1 8.52601 21.4608 -15.6758
6 1 8.93476 20.6671 -15.6997
7 1 9.19913 19.7504 -15.8255
8 1 9.69947 18.9829 -16.0062
9 1 9.35469 18.0995 -15.8487
10 1 9.40834 17.4013 -15.2118
11 1 8.53281 16.9602 -15.0938
12 1 8.1614 16.4692 -15.7677
13 1 7.26988 16.2126 -15.9993
14 1 6.60316 15.5734 -16.1341
15 1 5.78166 15.0851 -15.961
16 1 5.22221 14.6342 -15.3452
17 1 5.6267 14.4817 -14.4695
18 1 6.48215 14.2301 -14.2629
19 1 6.82065 13.5649 -14.8619
20 1 6.91255 13.1145 -15.688
21 1 7.25483 12.6632 -16.4543
22 1 7.88696 12.3934 -17.0828
23 1 7.94816 11.4984 -17.4037
24 1 8.6354 11.1141 -17.8995
25 1 8.41818 10.5996 -18.6732
26 1 8.27853 9.83298 -19.2643
27 1 8.74136 9.23996 -19.9391
28 1 9.47596 8.78692 -20.391
29 1 10.0384 8.358 -20.9889
30 1 10.1393 7.93233 -21.7975
31 1 10.5359 7.29423 -22.3649
32 1 11.412 7.2847 -22.0648
ITEM: TIMESTEP
2190000
ITEM: NUMBER OF ATOMS
32
ITEM: BOX BOUNDS mm mm mm
-1.6000000000000000e+01 1.6000000000000000e+01
-1.6000000000000000e+01 1.6646980795738134e+01
-2.5000527727775310e+01 1.6000000000000000e+01
ITEM: ATOMS id type x y z
1 1 10.8946 16.6438 -24.9972
2 1 10.4223 16.4158 -24.1986
3 1 10.2403 15.4857 -24.0631
4 1 10.1592 14.598 -23.7047
5 1 9.43106 14.1056 -23.3741
6 1 8.68122 13.5416 -23.3898
7 1 7.93251 13.8506 -22.8719
8 1 7.23758 13.9739 -22.2272
9 1 6.67027 13.5758 -21.6441
10 1 6.34405 12.8137 -22.124
11 1 6.67501 11.9911 -21.8405
12 1 7.61057 11.9467 -21.6656
13 1 8.49319 11.9374 -22.0802
14 1 9.29525 12.4675 -21.9092
15 1 8.98425 13.3531 -22.0152
16 1 8.05114 13.4017 -21.758
17 1 8.23015 13.5924 -20.865
18 1 7.72074 12.8939 -20.5895
19 1 7.65559 12.289 -19.9058
20 1 7.99795 12.1089 -19.0661
21 1 8.07503 11.6104 -18.2616
22 1 8.28927 11.3682 -17.3602
23 1 9.17421 11.2911 -16.9703
24 1 9.69307 12.0778 -16.9697
25 1 10.1549 12.2826 -17.7613
26 1 10.2421 13.2001 -17.5463
27 1 9.89343 13.8579 -18.072
28 1 9.05148 14.2581 -18.0919
29 1 8.92789 15.0957 -17.742
30 1 8.02244 15.3845 -17.6665
31 1 8.16322 14.9316 -16.8235
32 1 8.82632 14.8116 -16.1291
ITEM: TIMESTEP
2200000
ITEM: NUMBER OF ATOMS
32
ITEM: BOX BOUNDS mm mm mm
-1.6000000000000000e+01 1.6862274907524625e+01
-1.6000000000000000e+01 2.2683425021813576e+01
-2.0487132128122521e+01 1.6000000000000000e+01
ITEM: ATOMS id type x y z
1 1 9.56023 22.6802 -19.9578
2 1 9.82694 21.7767 -19.6913
3 1 10.2719 20.999 -19.768
4 1 10.7231 20.2816 -20.0969
5 1 11.0841 19.4721 -20.3305
6 1 11.8971 18.9541 -20.2733
7 1 12.6272 18.3869 -20.4838
8 1 13.2603 17.8547 -20.0582
9 1 12.9651 17.4536 -19.2573
10 1 13.3098 17.1225 -18.4391
11 1 13.8117 16.7539 -17.7639
12 1 13.743 16.2033 -17.0064
13 1 13.4281 15.5303 -16.3926
14 1 13.9419 15.1396 -15.6929
15 1 14.8277 15.5465 -15.4526
16 1 15.4982 15.973 -15.0487
17 1 16.3415 16.1739 -15.354
18 1 16.1145 16.3844 -16.3249
19 1 16.5854 15.8955 -16.9706
20 1 16.8591 14.9704 -16.9623
21 1 16.5677 14.1026 -16.9298
22 1 16.0095 13.4113 -16.5687
23 1 15.0567 13.3689 -16.5101
24 1 14.4802 12.7092 -16.8451
25 1 14.4738 11.894 -16.3538
26 1 14.4439 11.6623 -15.3834
27 1 14.4422 10.9067 -14.839
28 1 14.6407 9.99181 -14.7081
29 1 14.7907 9.60903 -13.8614
30 1 15.3894 10.3233 -13.6607