ITEM: TIMESTEP
1680000
ITEM: NUMBER OF ATOMS
32
ITEM: BOX BOUNDS mm mm mm
-1.6000000000000000e+01 1.6000000000000000e+01
-1.6000000000000000e+01 2.2225380194300602e+01
-2.4993093844856613e+01 1.6000000000000000e+01
ITEM: ATOMS id type x y z
1 1 5.14893 22.2216 -16.1589
2 1 4.84607 21.9841 -15.2618
3 1 4.03409 22.0169 -15.693
4 1 3.14088 22.1536 -15.8808
5 1 3.52719 22.1625 -16.7488
6 1 3.83418 21.5928 -17.4393
7 1 3.2461 21.4683 -18.1844
8 1 3.14905 20.7305 -17.6191
9 1 3.41309 19.8859 -18.0101
10 1 4.07983 19.4615 -18.5043
11 1 4.83282 19.6029 -19.0936
12 1 5.37735 19.32 -19.8803
13 1 5.45325 19.6999 -20.7782
14 1 6.39332 19.6726 -20.9632
15 1 6.25272 18.8616 -21.4653
16 1 5.99544 19.152 -22.3141
17 1 5.26066 18.6449 -22.0333
18 1 4.70306 17.9758 -22.4108
19 1 5.12779 17.6316 -23.1435
20 1 4.52916 17.8007 -23.8385
21 1 4.23865 16.9816 -23.4489
22 1 3.61169 16.721 -24.0804
23 1 3.35511 16.3093 -24.8751
24 1 4.21683 15.841 -24.7724
25 1 3.64461 15.4929 -24.1138
26 1 4.52904 15.3961 -23.8031
27 1 5.15132 15.312 -24.4922
28 1 5.7849 15.7692 -24.989
29 1 6.02704 14.9041 -24.7982
30 1 6.82569 14.7063 -24.3114
31 1 7.38051 15.4215 -24.4358
32 1 8.05868 15.9085 -24.7405
ITEM: TIMESTEP
1690000
ITEM: NUMBER OF ATOMS
32
ITEM: BOX BOUNDS mm mm mm
-1.6000000000000000e+01 1.6000000000000000e+01
-1.6000000000000000e+01 1.7737204243316071e+01
-2.9933092445356507e+01 1.6000000000000000e+01
ITEM: ATOMS id type x y z
1 1 8.18453 12.5656 -22.4762
2 1 7.34283 12.9206 -22.2125
3 1 7.44113 13.4897 -22.9506
4 1 6.90097 14.0646 -23.4663
5 1 7.54001 14.7116 -23.4464
6 1 8.22645 14.8684 -22.8519
7 1 8.94881 14.4751 -23.2411
8 1 8.78198 14.4364 -24.153
9 1 8.37431 13.6701 -24.5457
10 1 8.699 13.2899 -25.3593
11 1 8.214 12.6754 -24.8223
12 1 7.65425 11.9478 -24.7466
13 1 7.96664 11.1378 -24.4252
14 1 7.06958 10.9297 -24.4392
15 1 6.3889 11.0827 -25.0283
16 1 6.46821 11.2848 -25.949
17 1 6.50156 12.0104 -26.5394
18 1 5.98463 12.6786 -27.0677
19 1 5.39746 13.1749 -27.6462
20 1 5.28967 13.7679 -28.3459
21 1 5.40579 13.8915 -29.2417
22 1 6.14572 13.7002 -29.7833
23 1 6.84464 14.1356 -29.299
24 1 7.24918 14.3873 -28.5259
25 1 7.10947 14.5881 -27.6063
26 1 7.68814 15.2924 -27.5128
27 1 8.57507 15.3022 -27.2558
28 1 8.88876 16.1122 -27.6286
29 1 8.86895 17.0321 -27.6582
30 1 9.34736 17.241 -28.5118
31 1 10.1049 17.759 -28.7043
32 1 10.8269 17.3006 -28.3601
ITEM: TIMESTEP
1700000
ITEM: NUMBER OF ATOMS
32
ITEM: BOX BOUNDS mm mm mm
-1.6000000000000000e+01 1.6000000000000000e+01
-1.6000000000000000e+01 2.0008263543813658e+01
-2.8134882153178289e+01 1.6000000000000000e+01
ITEM: ATOMS id type x y z
1 1 4.35606 17.5767 -26.2121
2 1 4.96268 17.0545 -25.6891
3 1 5.4193 16.4197 -26.1538
4 1 5.35365 15.7805 -26.8662
5 1 6.00012 15.4219 -26.2732
6 1 6.71418 16.0423 -26.3577
7 1 7.24691 16.0112 -27.1203
8 1 8.07685 15.728 -27.5634
9 1 8.55376 15.0878 -28.0863
10 1 8.95614 15.031 -27.2403
11 1 9.19612 14.5501 -26.422
12 1 9.33672 13.6086 -26.4144
13 1 8.62634 13.1371 -26.833
14 1 8.38539 12.5565 -26.1649
15 1 7.83925 12.6977 -25.3822
16 1 8.32948 13.074 -24.625
17 1 8.52377 13.923 -24.2839
18 1 8.6136 14.6528 -24.8256
19 1 9.55834 14.9247 -24.7278
20 1 9.70028 15.66 -25.3214
21 1 10.3194 15.9158 -25.9335
22 1 10.1285 16.5046 -26.639
23 1 9.96763 17.4208 -26.6808
24 1 9.49481 17.8025 -25.9658
25 1 9.05042 17.3163 -25.3063
26 1 8.8722 17.7181 -24.5186
27 1 9.15883 17.8381 -23.6084
28 1 8.21747 17.8579 -23.4865
29 1 7.61283 18.4523 -23.1393
30 1 6.90483 18.8376 -22.6659
31 1 6.51168 19.7261 -22.5096
32 1 5.64299 19.9666 -22.4029
ITEM: TIMESTEP
1710000
ITEM: NUMBER OF ATOMS
32
ITEM: BOX BOUNDS mm mm mm
-1.6000000000000000e+01 1.6000000000000000e+01
-1.6000000000000000e+01 2.0021726643862948e+01
-3.1253438263936566e+01 1.6000000000000000e+01
ITEM: ATOMS id type x y z
1 1 5.82892 17.9337 -31.2418
2 1 5.75906 17.4617 -30.4678
3 1 6.33481 17.5199 -29.6848
4 1 6.18371 17.314 -28.8141
5 1 6.71456 16.623 -28.4038
6 1 5.91179 16.4139 -27.97
7 1 6.15282 15.4751 -28.1462
8 1 5.63572 15.7182 -28.9324
9 1 6.16473 14.9376 -29.1309
10 1 6.08851 14.1474 -29.6305
11 1 5.25592 13.9753 -29.1799
12 1 4.55318 13.6228 -29.7073
13 1 4.14276 13.9134 -28.8933
14 1 4.26136 14.8258 -28.9485
15 1 4.29716 15.7676 -28.9462
16 1 3.6116 16.466 -28.7845
17 1 3.72853 16.2103 -27.8182
18 1 3.10434 15.6232 -27.3723
19 1 3.48275 15.0322 -26.7321
20 1 2.69024 14.6812 -27.061
21 1 2.45311 14.5655 -26.1406
22 1 2.43118 15.4304 -25.7499
23 1 1.88788 16.2074 -25.5914
24 1 1.7083 17.0442 -26.016
25 1 1.25216 17.7713 -26.4277
26 1 0.999785 18.1996 -25.647
27 1 0.16845 18.6465 -25.4026
28 1 0.165792 19.4751 -25.8833
29 1 0.380841 19.4845 -24.9467
30 1 1.03473 19.0093 -24.4563
31 1 1.50611 18.9118 -23.615
32 1 2.03044 18.14 -23.7867
ITEM: TIMESTEP
1720000
ITEM: NUMBER OF ATOMS
32
ITEM: BOX BOUNDS mm mm mm
-1.6000000000000000e+01 1.6000000000000000e+01
-1.6000000000000000e+01 2.3526037013417028e+01
-3.3094675944287459e+01 1.6000000000000000e+01
ITEM: ATOMS id type x y z
1 1 5.67233 13.0601 -32.5529
2 1 5.50498 13.86 -32.048
3 1 4.61725 13.791 -31.717
4 1 3.79722 14.0829 -31.4856
5 1 2.91206 14.249 -31.7453
6 1 2.28448 14.3748 -30.9946
7 1 2.66219 14.5235 -30.1232
8 1 2.7214 14.1807 -29.2388
9 1 2.64601 13.4104 -28.7123
10 1 2.4074 13.015 -27.8573
11 1 2.60739 13.8681 -27.5531
12 1 2.24673 14.3841 -28.2391
13 1 1.46865 14.2295 -28.7225
14 1 0.977622 14.9254 -29.02
15 1 1.29803 15.8379 -29.1526
16 1 0.95581 16.1413 -28.3103
17 1 0.403558 16.4424 -28.954
18 1 -0.274278 17.0687 -28.9298
19 1 -0.925263 17.7193 -28.5723
20 1 -1.56779 18.3806 -28.5881
21 1 -2.05528 17.8564 -27.9931
22 1 -2.48273 18.5825 -27.6278
23 1 -3.04491 19.0391 -28.2439
24 1 -2.93678 19.7658 -28.8067
25 1 -3.00615 20.3923 -29.4857
26 1 -3.10832 19.6657 -30.0128
27 1 -2.9017 20.2597 -30.7492
28 1 -2.75179 21.1861 -31.1449
29 1 -2.29105 21.8928 -31.4585
30 1 -2.13239 22.6798 -31.9524
31 1 -2.00645 23.4856 -32.3473
32 1 -2.30136 23.4434 -33.2059
ITEM: TIMESTEP
1730000
ITEM: NUMBER OF ATOMS
32
ITEM: BOX BOUNDS mm mm mm
-1.6000000000000000e+01 1.6000000000000000e+01
-1.6000000000000000e+01 2.2458741105531910e+01
-3.3929643586627776e+01 1.6000000000000000e+01
ITEM: ATOMS id type x y z
1 1 2.72273 18.1318 -32.8087
2 1 3.08596 18.8578 -33.1994
3 1 2.78877 18.6099 -34.0245
4 1 2.20919 19.2493 -33.6041
5 1 2.38076 19.6995 -32.8252
6 1 1.87471 19.7097 -32.0121
7 1 2.09793 19.8004 -31.06
8 1 1.79073 20.4527 -30.4075
9 1 1.08462 21.0665 -30.3717
10 1 0.754652 21.6889 -29.7728
11 1 0.695318 21.4103 -28.8648
12 1 1.08561 22.2382 -28.7295
13 1 1.72979 22.9341 -28.4554
14 1 2.51506 22.476 -28.7534
15 1 2.43238 21.4893 -28.6502
16 1 1.98605 21.4412 -27.8255
17 1 1.29416 21.1267 -27.2852
18 1 0.913495 20.4846 -27.8353
19 1 0.456499 20.3224 -27.0215
20 1 -0.0285949 19.7863 -26.3819
21 1 -0.925531 19.9833 -26.1069
22 1 -0.924851 19.3779 -25.3683
23 1 -0.6341 19.6476 -24.5211
24 1 -0.412925 20.5412 -24.2964
25 1 -0.319546 21.5498 -24.1596
26 1 0.360597 21.9421 -24.6948
27 1 1.15535 22.0392 -25.1264
28 1 1.341 21.9769 -24.2221
29 1 1.89255 21.1882 -24.3665
30 1 1.7577 20.5357 -24.97
31 1 1.41612 20.1213 -25.7175
32 1 0.629769 20.6856 -25.7749
ITEM: TIMESTEP
1740000
ITEM: NUMBER OF ATOMS
32
ITEM: BOX BOUNDS mm mm mm
-1.6000000000000000e+01 1.6000000000000000e+01
-1.6000000000000000e+01 2.6526393209872481e+01
-3.0185470029261992e+01 1.6000000000000000e+01
ITEM: ATOMS id type x y z
1 1 0.668723 23.0914 -25.3488
2 1 0.834418 23.2649 -26.2971
3 1 1.45317 22.5841 -26.5674
4 1 1.30561 21.9706 -25.8534
5 1 1.55542 21.7935 -24.9835
6 1 1.45006 22.5899 -24.4532
7 1 1.20086 23.4288 -24.1784
8 1 1.43524 24.1726 -24.704
9 1 1.6492 25.1392 -24.6888
10 1 1.52961 25.9005 -24.144
11 1 2.18493 26.2724 -24.7163
12 1 1.93267 26.1513 -25.603
13 1 2.00323 25.9851 -26.5246
14 1 2.73101 25.8388 -27.1516
15 1 2.51502 26.4767 -27.7932
16 1 2.41384 26.6357 -28.7146
17 1 2.62194 25.7121 -28.6743
18 1 2.35815 25.5148 -29.6024
19 1 2.3719 24.5776 -29.6508
20 1 2.84997 23.8353 -29.9372
21 1 3.0835 22.9227 -29.7138
22 1 3.4595 23.1936 -28.9113
23 1 3.93102 23.8058 -28.3096
24 1 3.66081 24.2266 -27.5314
25 1 3.85109 25.1434 -27.5755
26 1 4.41332 25.5452 -26.8823
27 1 4.25942 25.2638 -25.9576
28 1 3.83817 24.8597 -25.2462
29 1 4.23734 24.0503 -25.3018
30 1 4.22426 23.8154 -26.2451
31 1 5.10692 23.6755 -25.8809
32 1 4.67516 22.9414 -26.2644
ITEM: TIMESTEP
1750000
ITEM: NUMBER OF ATOMS
32
ITEM: BOX BOUNDS mm mm mm
-1.6000000000000000e+01 1.6000000000000000e+01
-1.6000000000000000e+01 3.0210289403058066e+01
-2.7913570746088762e+01 1.6000000000000000e+01
ITEM: ATOMS id type x y z
1 1 0.395244 29.5742 -25.3201
2 1 1.30484 29.4365 -25.5231
3 1 1.20666 29.0977 -24.5543
4 1 1.6489 29.68 -23.9802
5 1 2.48863 30.0252 -23.6766
6 1 2.93739 29.4732 -24.2838
7 1 2.40076 28.7162 -24.4841
8 1 2.11114 28.1191 -25.0968
9 1 2.04783 27.457 -25.7774
10 1 2.6777 28.0959 -26.0403
11 1 3.11003 28.9442 -25.92
12 1 3.43897 29.6672 -26.4574
13 1 3.7097 28.9151 -27.0138
14 1 3.30226 28.4301 -27.7172
15 1 2.72654 28.8128 -27.0493
16 1 2.03179 29.2186 -27.4129
17 1 1.52042 28.4978 -27.733
18 1 1.57001 27.5534 -27.7749
19 1 1.74258 26.62 -27.7251
20 1 2.11174 25.852 -27.4291
21 1 2.48396 26.6339 -27.0561
22 1 3.25861 26.3717 -26.5165
23 1 3.20029 25.3816 -26.4446
24 1 3.08799 24.4798 -26.2124
25 1 3.44759 23.7227 -25.7124
26 1 4.29342 24.0616 -26.1069
27 1 5.16242 24.1842 -26.3845
28 1 6.02993 24.4215 -26.7296
29 1 6.09574 23.9822 -27.5693
30 1 7.02774 24.0903 -27.8028
31 1 7.28204 24.3974 -26.9788
32 1 8.22924 24.2816 -26.8685
ITEM: TIMESTEP
1760000
ITEM: NUMBER OF ATOMS
32
ITEM: BOX BOUNDS mm mm mm
-1.6000000000000000e+01 1.6000000000000000e+01
-1.6000000000000000e+01 3.0935426672545105e+01
-2.4211270437462900e+01 1.6000000000000000e+01
ITEM: ATOMS id type x y z
1 1 0.978148 24.3576 -24.2398
2 1 1.42932 24.443 -23.4119
3 1 2.31907 24.915 -23.2107
4 1 1.96972 25.5758 -22.7128
5 1 2.1101 26.502 -22.7436
6 1 2.20755 27.3032 -22.3236
7 1 1.78988 28.143 -22.5007
8 1 1.26495 27.7067 -21.8929
9 1 0.643329 28.0758 -21.2009
10 1 1.10088 27.9794 -20.3494
11 1 0.830973 27.5809 -19.5327
12 1 0.591368 28.4671 -19.2771
13 1 0.767635 27.9291 -18.4974
14 1 1.14138 27.4705 -17.7537
15 1 2.09971 27.6081 -17.935
16 1 1.93186 28.4632 -18.3334
17 1 2.21276 28.7157 -19.1749
18 1 2.59293 28.7463 -20.0392
19 1 2.69021 29.3192 -20.7556
20 1 2.19265 29.9067 -21.3254
21 1 1.48667 29.2858 -21.3747
22 1 0.996217 30.0302 -21.7087
23 1 0.494595 30.8033 -21.7036
24 1 -0.348638 30.4051 -21.3434
25 1 -0.928082 30.2316 -22.0408
26 1 -0.521913 29.7372 -22.7175
27 1 -0.464127 30.528 -23.1955
28 1 -0.480195 30.8226 -24.072
29 1 -1.40114 30.7406 -23.7354
30 1 -1.67491 29.8799 -23.5893
31 1 -2.44563 29.2716 -23.4893
32 1 -2.81677 30.0842 -23.1816
ITEM: TIMESTEP
1770000
ITEM: NUMBER OF ATOMS
32
ITEM: BOX BOUNDS mm mm mm
-1.6000000000000000e+01 1.6000000000000000e+01
-1.6000000000000000e+01 3.4679411239791818e+01
-2.8386151923857987e+01 1.6000000000000000e+01
ITEM: ATOMS id type x y z
1 1 3.18611 29.7754 -27.2795
2 1 3.44103 30.677 -27.4784
3 1 3.61857 31.3801 -28.1317
4 1 3.37729 32.2192 -28.3375
5 1 2.45725 32.2064 -28.1902
6 1 1.6004 32.6346 -28.0885
7 1 0.809342 32.3886 -27.6412
8 1 0.118429 32.2306 -26.9707
9 1 -0.224404 31.3545 -26.6748
10 1 0.470562 30.9937 -26.1595
11 1 1.06933 31.1252 -25.4293
12 1 1.08931 30.9421 -24.4727
13 1 1.05218 31.8131 -24.1711
14 1 1.00258 32.0919 -23.2698
15 1 0.688766 32.3095 -22.3308
16 1 0.57544 33.1777 -22.0562
17 1 1.12286 34.013 -21.8596
18 1 0.46174 34.6507 -21.6266
19 1 0.755396 34.651 -20.7191
20 1 -0.0362605 34.2248 -20.4034
21 1 0.541993 33.4679 -20.2398
22 1 1.35425 33.7673 -19.811
23 1 1.99843 33.1534 -19.5178
24 1 2.78876 32.5988 -19.4775
25 1 2.7637 31.639 -19.645
26 1 2.63199 30.9268 -19.0226
27 1 3.15628 30.2387 -18.708
28 1 3.69451 29.6539 -18.2478
29 1 3.29191 28.8068 -18.4272
30 1 3.85003 28.3927 -17.7036
31 1 3.2377 28.9985 -17.3432
32 1 2.60928 29.5735 -17.7717
ITEM: TIMESTEP
1780000
ITEM: NUMBER OF ATOMS
32
ITEM: BOX BOUNDS mm mm mm
-1.6000000000000000e+01 1.6000000000000000e+01
-1.6000000000000000e+01 3.3527646995809739e+01
-2.6039404970896545e+01 1.6000000000000000e+01
ITEM: ATOMS id type x y z
1 1 2.98074 33.72 -24.9047
2 1 3.17364 33.2409 -24.1398
3 1 3.17259 32.8633 -23.2922
4 1 2.36955 32.4119 -23.5317
5 1 1.76461 31.9954 -24.0877
6 1 0.996283 31.6361 -24.5485
7 1 0.0157123 31.6321 -24.5186
8 1 0.193771 31.2928 -25.316
9 1 0.260158 30.8106 -26.1318
10 1 0.998777 30.4068 -25.7701
11 1 0.441612 30.0283 -25.1135
12 1 0.24902 29.2097 -24.7482
13 1 0.38235 28.842 -23.9112
14 1 1.28989 28.7033 -23.6476
15 1 0.905807 28.5086 -22.818
16 1 1.60395 27.9313 -22.6091
17 1 1.40083 27.7336 -21.7054
18 1 1.44151 26.8508 -21.7241
19 1 2.42346 26.982 -21.7556
20 1 2.85837 26.7797 -20.9024
21 1 3.41347 26.5434 -21.63
22 1 4.30492 26.7775 -21.4326
23 1 5.20759 26.745 -21.7012
24 1 5.80849 27.4522 -22.0238
25 1 6.22055 27.75 -21.226
26 1 6.63027 26.9811 -20.8008
27 1 7.13105 26.3681 -20.4182
28 1 7.33576 25.4876 -20.4765
29 1 8.10709 25.6178 -19.8721
30 1 8.18217 24.7312 -20.1846
31 1 8.72182 24.8822 -20.9545
32 1 9.02703 25.7849 -20.9832
ITEM: TIMESTEP
1790000
ITEM: NUMBER OF ATOMS
32
ITEM: BOX BOUNDS mm mm mm
-1.6000000000000000e+01 1.6000000000000000e+01
-1.6000000000000000e+01 3.7974322338791175e+01
-2.9150834439494659e+01 1.6000000000000000e+01
ITEM: ATOMS id type x y z
1 1 3.99633 38.413 -28.5572
2 1 3.78606 37.5871 -28.1691
3 1 3.03581 37.2183 -27.7327
4 1 2.35956 37.311 -28.3746
5 1 1.7782 36.6 -28.8335
6 1 1.60695 36.1888 -28.0414
7 1 1.02588 36.6283 -27.5317
8 1 0.178872 36.1947 -27.3522
9 1 -0.00888846 36.2266 -26.3825
10 1 0.528591 35.64 -25.8611
11 1 0.793555 34.8059 -25.4844
12 1 1.4919 35.2989 -25.0737
13 1 1.21336 35.909 -24.3832
14 1 0.927541 36.2325 -23.5124
15 1 0.0472461 35.9624 -23.2668
16 1 0.142199 35.0427 -23.1762
17 1 0.29269 34.1208 -23.2885
18 1 0.368178 33.4953 -22.5721
19 1 1.12267 33.7236 -22.088
20 1 1.17888 32.7985 -21.9107
21 1 1.17253 31.9241 -22.1564
22 1 1.74741 31.6507 -22.8974
23 1 1.70235 30.7334 -22.7802
24 1 1.31194 30.2171 -22.0801
25 1 0.467212 30.4238 -22.2177
26 1 -0.335719 30.4497 -22.7891
27 1 -0.24336 29.5427 -22.5966
28 1 -0.138095 28.6721 -22.3063
29 1 0.34451 27.9709 -21.9931
30 1 0.991572 28.0401 -22.635
31 1 1.87245 28.3669 -22.8333
32 1 2.51782 29.0401 -22.721
ITEM: TIMESTEP
1800000
ITEM: NUMBER OF ATOMS
32
ITEM: BOX BOUNDS mm mm mm
-1.6000000000000000e+01 1.6000000000000000e+01
-1.6000000000000000e+01 3.4860176474640937e+01
-2.9336063939158795e+01 1.6000000000000000e+01
ITEM: ATOMS id type x y z
1 1 0.767794 33.0563 -27.0059
2 1 0.292496 33.7846 -26.6788
3 1 0.911834 34.5302 -26.6656
4 1 1.59267 34.1633 -27.2324
5 1 0.952259 33.9656 -27.8913
6 1 0.532825 33.411 -28.6383
7 1 -0.0544314 32.8356 -29.0564
8 1 -0.687472 33.5655 -29.1189
9 1 -1.12571 34.4307 -29.3482
10 1 -2.05455 34.4625 -29.1537
11 1 -1.6717 34.05 -28.3436
12 1 -1.08123 33.4806 -27.8879
13 1 -1.26817 32.7772 -27.3618
14 1 -0.924161 32.8807 -26.504
15 1 -0.165872 32.739 -25.9312
16 1 -0.144585 33.3444 -25.2368
17 1 -0.99193 33.6643 -24.9053
18 1 -1.28061 34.3774 -24.331
19 1 -2.18541 34.3102 -24.1402
20 1 -2.77693 34.4708 -23.4167
21 1 -3.30641 34.5131 -24.1535
22 1 -3.78374 33.6867 -24.0594
23 1 -4.77314 33.7835 -24.0211
24 1 -4.9303 33.3678 -23.1646
25 1 -4.10103 33.4625 -22.7148
26 1 -4.21816 33.2488 -21.7917
27 1 -3.46333 32.8478 -21.3776
28 1 -2.57332 32.7718 -21.0123
29 1 -2.79965 32.5652 -20.1746
30 1 -2.17308 33.2534 -19.8398
31 1 -1.83768 33.0672 -18.9662
32 1 -1.92868 33.5189 -18.0997
ITEM: TIMESTEP
1810000
ITEM: NUMBER OF ATOMS
32
ITEM: BOX BOUNDS mm mm mm
-1.6000000000000000e+01 1.6000000000000000e+01
-1.6000000000000000e+01 3.5869706079010946e+01
-2.6202665445496415e+01 1.6000000000000000e+01
ITEM: ATOMS id type x y z
1 1 4.78307 29.8976 -24.5842
2 1 4.21938 29.1695 -24.5218
3 1 4.46536 29.1804 -25.4721
4 1 3.94507 29.6703 -26.1144
5 1 2.9857 29.5198 -26.1786
6 1 2.71718 30.3721 -26.026
7 1 3.02294 31.2072 -25.6698
8 1 2.16856 31.3326 -25.2674
9 1 1.40638 31.7052 -25.6317
10 1 0.77233 32.3115 -25.3657
11 1 0.450319 33.1021 -24.922
12 1 0.894454 33.6165 -24.2129
13 1 0.792811 32.9204 -23.5536
14 1 0.0569421 32.5092 -23.1263
15 1 -0.867247 32.7223 -23.0017
16 1 -1.23315 33.5518 -23.0741
17 1 -1.41873 34.453 -23.3001
18 1 -1.73708 34.3224 -22.4455
19 1 -2.67826 34.2625 -22.4708
20 1 -2.32504 33.5249 -23.0269
21 1 -2.93603 33.191 -22.3816
22 1 -3.74252 33.6529 -22.1607
23 1 -4.47994 33.92 -21.562
24 1 -4.10451 34.7909 -21.3795
25 1 -3.19644 34.8365 -21.2761
26 1 -2.98654 35.156 -20.3895
27 1 -2.06806 35.1188 -20.5524
28 1 -2.27294 35.4624 -19.6942
29 1 -3.01026 35.255 -19.1309
30 1 -3.4479 35.8397 -18.5862
31 1 -3.22269 35.5793 -17.7193
32 1 -2.3171 35.5122 -18.0549
ITEM: TIMESTEP
1820000
ITEM: NUMBER OF ATOMS
32
ITEM: BOX BOUNDS mm mm mm
-1.6000000000000000e+01 1.6000000000000000e+01
-1.6000000000000000e+01 3.7021837899305119e+01
-2.8810735360325218e+01 1.6000000000000000e+01
ITEM: ATOMS id type x y z
1 1 -1.53346 28.3986 -28.487
2 1 -1.7855 29.1148 -28.0318
3 1 -1.3265 28.9315 -27.2067
4 1 -0.599102 29.3525 -27.6962
5 1 -0.0121948 29.1987 -28.3618
6 1 0.515319 29.127 -29.1564
7 1 1.06124 29.5487 -28.4843
8 1 1.08128 29.3557 -27.5273
9 1 1.28286 29.8684 -26.7263
10 1 1.78732 29.9394 -25.9332
11 1 1.83379 30.3685 -25.11
12 1 2.36349 29.8346 -24.5974
13 1 3.14995 30.0197 -24.1071
14 1 3.08774 30.5524 -23.3633
15 1 3.09115 31.4886 -23.3531
16 1 3.39885 32.0864 -22.6694
17 1 3.79104 32.2678 -23.494
18 1 3.0757 32.1769 -24.1151
19 1 3.25477 32.0786 -25.0559
20 1 2.37875 32.2657 -25.2579
21 1 1.44332 32.3294 -25.2777
22 1 0.513779 32.2965 -25.2233
23 1 0.757519 33.0762 -25.7183
24 1 0.213989 33.8365 -25.624
25 1 0.784424 34.568 -25.6817
26 1 1.07605 35.3784 -25.3388
27 1 1.12926 36.3011 -25.4963
28 1 0.96298 36.8097 -24.6767
29 1 0.606084 36.911 -23.7529
30 1 -0.230786 36.7465 -23.2655
31 1 -0.965728 36.1234 -23.1081
32 1 -1.04717 36.8803 -22.5494
ITEM: TIMESTEP
1830000
ITEM: NUMBER OF ATOMS
32
ITEM: BOX BOUNDS mm mm mm
-1.6000000000000000e+01 1.6000000000000000e+01
-1.6000000000000000e+01 3.6691974291684531e+01
-2.9357973542009205e+01 1.6000000000000000e+01
ITEM: ATOMS id type x y z
1 1 2.8688 36.7646 -29.2888
2 1 1.98804 36.5492 -29.2953
3 1 2.20894 35.782 -28.8078
4 1 2.41921 35.3472 -27.9943
5 1 3.12168 34.6779 -27.8359
6 1 3.38338 33.8858 -27.4564
7 1 4.2596 33.7275 -27.7256
8 1 5.07448 33.3323 -27.3094
9 1 4.93812 34.0638 -26.7687
10 1 4.72037 33.2803 -26.2743
11 1 4.38179 33.4628 -25.3669
12 1 3.97672 33.8847 -24.6346
13 1 3.85102 33.3161 -23.8773
14 1 3.90332 32.4033 -23.7107
15 1 3.51996 32.5537 -24.6038
16 1 3.88619 31.7265 -24.9706
17 1 3.52278 30.9779 -24.5374
18 1 2.58394 30.9944 -24.6794
19 1 1.7602 30.7311 -24.317
20 1 1.86306 29.9358 -23.7612
21 1 1.72057 29.6693 -22.8392
22 1 1.37859 30.5364 -22.8573
23 1 2.10944 30.7963 -22.1793
24 1 1.88815 31.4928 -21.6522
25 1 1.12499 31.9141 -21.7645
26 1 0.310745 32.2481 -21.4554
27 1 -0.0457259 31.5493 -21.9619
28 1 -0.408634 31.3173 -22.8716
29 1 -1.0275 31.9376 -23.1859
30 1 -1.81596 31.5597 -22.8631
31 1 -2.56317 31.7396 -22.2799
32 1 -2.15172 32.539 -22.0896
ITEM: TIMESTEP
1840000
ITEM: NUMBER OF ATOMS
32
ITEM: BOX BOUNDS mm mm mm
-1.6000000000000000e+01 1.6000000000000000e+01
-1.6000000000000000e+01 3.2018568713474032e+01
-2.8893838123314008e+01 1.6000000000000000e+01
ITEM: ATOMS id type x y z
1 1 10.9377 31.9984 -28.1243
2 1 10.7862 31.0901 -28.2796
3 1 10.6887 30.9122 -27.3941
4 1 9.91338 31.3422 -27.516
5 1 9.37739 32.0029 -27.0236
6 1 8.54001 31.8175 -27.5047
7 1 7.8522 31.5452 -26.9408
8 1 7.44331 30.7205 -26.6924
9 1 7.31431 30.2918 -27.4871
10 1 6.81358 29.5252 -27.5389
11 1 5.9635 29.571 -27.9398
12 1 6.13809 30.1647 -28.6843
13 1 5.25269 30.547 -28.6138
14 1 4.58033 29.9308 -28.3756
15 1 3.70939 30.0805 -27.9379
16 1 3.27825 29.2419 -28.1299
17 1 3.58574 28.6578 -27.4262
18 1 4.48204 28.869 -27.1468
19 1 5.06312 28.7777 -26.4286
20 1 5.80808 29.2788 -26.2219
21 1 5.22294 29.9507 -26.6787
22 1 4.80298 30.695 -26.2011
23 1 5.07462 30.9682 -25.3273
24 1 5.77524 30.8299 -24.6977
25 1 5.65145 30.6734 -23.8105
26 1 6.21363 29.9685 -24.1003
27 1 7.06821 29.7724 -23.6429
28 1 7.90244 29.8495 -23.1607
29 1 7.78526 28.9672 -22.8849
30 1 7.87239 28.1886 -23.4282
31 1 8.30313 27.3805 -23.376
32 1 8.89807 26.8112 -22.9301
ITEM: TIMESTEP
1850000
ITEM: NUMBER OF ATOMS
32
ITEM: BOX BOUNDS mm mm mm
-1.6000000000000000e+01 1.6000000000000000e+01
-1.6000000000000000e+01 3.0634776502904455e+01
-2.8239628599847723e+01 1.6000000000000000e+01
ITEM: ATOMS id type x y z
1 1 8.38578 29.95 -22.9575
2 1 8.37296 30.6377 -23.6032
3 1 7.4716 30.5043 -23.4976
4 1 7.50688 29.7475 -24.111
5 1 7.23772 29.1004 -23.4606
6 1 6.36423 29.399 -23.6325
7 1 6.21245 28.5206 -23.971
8 1 5.6711 28.7839 -24.64
9 1 6.51118 28.3484 -24.949
10 1 5.94621 28.3065 -25.7323
11 1 5.28112 27.8306 -25.2446
12 1 5.89822 27.3557 -24.6433
13 1 6.24602 26.5628 -24.3311
14 1 6.09953 26.0351 -25.0552
15 1 6.85908 26.2476 -25.5921
16 1 6.97209 25.3339 -25.5075
17 1 7.35102 24.8755 -26.2901
18 1 7.49253 25.3389 -27.1144
19 1 8.01303 25.1235 -27.8739
20 1 8.09976 24.2808 -28.2517
21 1 7.7825 23.9304 -27.4334
22 1 7.84284 23.0459 -27.1305
23 1 8.29551 23.1733 -26.3408
24 1 8.4069 22.3468 -25.9692
25 1 9.15726 22.8385 -25.6342
26 1 9.42762 22.8872 -24.7385
27 1 9.85099 23.7436 -24.7414
28 1 10.3134 23.4882 -25.4673
29 1 11.1305 22.9355 -25.3325
30 1 11.3059 22.2427 -25.9832
31 1 10.9137 21.4307 -25.9319
32 1 10.4294 21.0204 -25.2287
ITEM: TIMESTEP
1860000
ITEM: NUMBER OF ATOMS
32
ITEM: BOX BOUNDS mm mm mm
-1.6000000000000000e+01 1.6000000000000000e+01
-1.6000000000000000e+01 3.1305396712248100e+01
-2.8630979556195108e+01 1.6000000000000000e+01
ITEM: ATOMS id type x y z
1 1 9.77672 31.4225 -23.6089
2 1 9.59406 31.1602 -22.6934
3 1 10.4535 30.9368 -22.3641
4 1 10.5406 30.8093 -23.2589
5 1 10.6699 30.0083 -23.8212
6 1 10.5052 29.3922 -24.4982
7 1 9.65448 29.607 -24.8296
8 1 8.91417 30.0383 -25.2835
9 1 8.83656 29.2478 -25.7674
10 1 9.10684 28.5677 -25.0743
11 1 8.8351 28.078 -25.7932
12 1 7.88288 28.2014 -26.2158
13 1 7.74175 27.7168 -27.0354
14 1 7.26086 26.895 -26.8677
15 1 6.37155 26.926 -26.7062
16 1 6.47036 25.9559 -26.7805
17 1 7.4454 25.7241 -26.8704
18 1 8.09332 25.062 -26.9347
19 1 7.43538 24.6923 -26.3881
20 1 7.80458 23.8662 -26.6323
21 1 7.98941 23.4304 -27.4204
22 1 7.2882 23.178 -27.9646
23 1 6.47878 23.6283 -28.2923
24 1 6.20111 22.6906 -28.36
25 1 5.34599 23.1088 -28.2604
26 1 4.5059 22.734 -28.3624
27 1 4.09219 22.3702 -27.5887
28 1 3.35769 22.8291 -27.4439
29 1 3.51142 23.7131 -27.8243
30 1 2.58049 23.5772 -27.8587
31 1 2.04813 23.7284 -27.1162
32 1 1.12419 23.5562 -26.8604
ITEM: TIMESTEP
1870000
ITEM: NUMBER OF ATOMS
32
ITEM: BOX BOUNDS mm mm mm
-1.6000000000000000e+01 1.6000000000000000e+01
-1.6000000000000000e+01 3.0767028552642376e+01
-2.2873804518162910e+01 1.6000000000000000e+01
ITEM: ATOMS id type x y z
1 1 7.78919 27.3299 -15.2977
2 1 7.9821 26.641 -14.6611
3 1 8.05304 25.724 -14.7038
4 1 8.35305 26.2259 -15.4791
5 1 8.65595 25.987 -16.3449
6 1 9.59962 25.884 -16.5503
7 1 10.2659 26.2845 -16.0471
8 1 10.9592 26.3873 -16.6254
9 1 10.5066 26.9701 -17.2047
10 1 10.8484 27.1965 -18.0554
11 1 11.4507 27.213 -18.784
12 1 12.2771 26.9168 -18.79
13 1 11.9132 26.2496 -19.284
14 1 12.3058 25.4605 -19.5659
15 1 12.955 25.0743 -20.0755
16 1 13.2283 24.466 -20.7502
17 1 12.6883 24.867 -21.4066
18 1 13.1753 25.7116 -21.2081
19 1 12.3514 25.9126 -20.8221
20 1 12.5796 26.7251 -21.2809
21 1 12.1668 27.3227 -21.8583
22 1 12.0302 27.7459 -21.0318
23 1 11.123 27.9488 -21.1115
24 1 10.5316 27.5067 -20.5091
25 1 9.77069 27.7418 -21.0621
26 1 9.51151 28.5805 -20.9752
27 1 9.02705 29.4152 -21.0936
28 1 8.45526 28.9522 -21.6601
29 1 9.01144 28.588 -22.3767
30 1 8.94057 29.3945 -22.6569
31 1 8.61603 30.0981 -22.176
32 1 7.7442 30.273 -21.8894
ITEM: TIMESTEP
1880000
ITEM: NUMBER OF ATOMS
32
ITEM: BOX BOUNDS mm mm mm
-1.6000000000000000e+01 1.6000000000000000e+01
-1.6000000000000000e+01 3.0125868979445094e+01
-2.6058708775031057e+01 1.6000000000000000e+01
ITEM: ATOMS id type x y z
1 1 8.20656 29.3583 -19.4383
2 1 8.94279 29.3527 -18.8203
3 1 9.06095 30.1185 -19.3662
4 1 9.26916 29.6891 -20.1719
5 1 10.0207 29.2844 -19.7107
6 1 10.704 29.0705 -20.3324
7 1 10.2476 28.2635 -20.3994
8 1 11.0326 28.0781 -20.8687
9 1 10.5167 27.5321 -21.4519
10 1 10.8069 26.6036 -21.4766
11 1 11.596 26.1568 -21.4163
12 1 12.5739 26.1552 -21.3655
13 1 12.7276 25.1906 -21.2706
14 1 12.8376 25.4383 -22.1412
15 1 12.6689 24.6233 -22.5116
16 1 12.3847 25.3909 -23.0507
17 1 12.2574 25.9311 -23.8141
18 1 11.534 25.5895 -24.2322
19 1 11.4026 25.4964 -25.1951
20 1 12.1146 26.1119 -25.0447
21 1 12.3973 25.2677 -25.3184
22 1 11.8578 24.6565 -25.7394
23 1 11.3932 23.9001 -26.1139
24 1 10.921 23.2973 -25.5238
25 1 10.0465 23.3566 -25.8103
26 1 10.0595 23.7439 -25.0118
27 1 10.2607 24.5928 -24.6139
28 1 10.9044 24.597 -23.9478
29 1 10.5806 23.7286 -23.8354
30 1 9.63711 23.6802 -23.5454
31 1 8.92673 23.1494 -23.6903
32 1 8.13479 23.1123 -23.1355
ITEM: TIMESTEP
1890000
ITEM: NUMBER OF ATOMS
32
ITEM: BOX BOUNDS mm mm mm
-1.6000000000000000e+01 1.8919999722485638e+01
-1.6000000000000000e+01 2.9505822361768431e+01
-2.2675118870805910e+01 1.6000000000000000e+01
ITEM: ATOMS id type x y z
1 1 14.1833 27.0601 -16.1773
2 1 14.3969 27.847 -16.6703
3 1 14.6289 28.7546 -16.6538
4 1 15.4709 29.0692 -16.4784
5 1 15.6517 29.019 -15.5835
6 1 16.0146 28.2682 -15.1877
7 1 16.8579 28.5765 -15.5491
8 1 17.6691 28.7788 -15.9651
9 1 18.1252 27.9455 -16.2219
10 1 17.951 28.1533 -17.14
11 1 17.9026 28.9592 -17.6403
12 1 17.3586 29.6457 -18.0616
13 1 17.0572 28.8306 -18.32
14 1 16.4871 28.9332 -19.0526
15 1 15.6446 29.3456 -19.3244
16 1 15.0459 29.362 -20.0466
17 1 15.6869 29.7583 -20.6998
18 1 15.4903 28.7837 -20.72
19 1 15.8225 27.9561 -21.0602
20 1 15.4759 27.6236 -20.2432
21 1 16.3969 27.4578 -20.061
22 1 17.0554 26.8244 -20.3152
23 1 16.4074 27.0478 -20.9976
24 1 15.7749 26.2885 -21.0606
25 1 15.6987 25.5564 -21.5681
26 1 14.99 25.9824 -22.142
27 1 15.4959 26.7387 -22.2438
28 1 16.2371 27.1942 -22.6612
29 1 16.5659 28.005 -22.2887
30 1 17.3586 27.6392 -21.8774
31 1 18.2623 27.7899 -22.0244
32 1 19.0962 28.2588 -22.0442
ITEM: TIMESTEP
1900000
ITEM: NUMBER OF ATOMS
32
ITEM: BOX BOUNDS mm mm mm
-1.6000000000000000e+01 1.8899372941739667e+01
-1.6000000000000000e+01 2.8261335250734650e+01
-2.5058602730379576e+01 1.6000000000000000e+01
ITEM: ATOMS id type x y z
1 1 18.9576 24.5194 -18.3494
2 1 18.1126 24.2257 -18.5749
3 1 17.2747 23.9636 -18.496
4 1 17.2101 24.791 -18.9852
5 1 17.9313 25.2176 -18.5178
6 1 17.7316 26.1078 -18.7284
7 1 16.9955 26.6382 -18.4617
8 1 16.1679 26.3198 -18.8056
9 1 15.2358 26.2807 -18.804
10 1 14.45 26.3885 -18.1641
11 1 14.0432 26.7251 -18.8978
12 1 14.1749 25.8252 -19.0814
13 1 13.861 25.5103 -19.865
14 1 13.5315 26.3309 -19.8614
15 1 13.8824 26.8998 -20.5617
16 1 13.7718 26.0389 -20.87
17 1 13.3753 25.4541 -21.4515
18 1 13.6466 25.4048 -22.3494
19 1 13.0947 24.6046 -22.2655
20 1 13.5812 24.2713 -21.537
21 1 14.3374 24.5556 -21.0435
22 1 14.8965 25.338 -21.0436
23 1 15.7626 24.9432 -20.9612
24 1 16.091 25.804 -20.7401
25 1 16.06 26.083 -21.6104
26 1 15.8684 26.3352 -22.4964
27 1 15.3492 27.0926 -22.4722
28 1 15.1425 27.2425 -23.3844
29 1 15.667 27.9946 -23.2373
30 1 16.0526 28.3244 -24.0972
31 1 16.55 27.7073 -24.5983
32 1 16.9138 26.8528 -24.7185
ITEM: TIMESTEP
1910000
ITEM: NUMBER OF ATOMS
32
ITEM: BOX BOUNDS mm mm mm
-1.6000000000000000e+01 1.9724493299727918e+01
-1.6000000000000000e+01 2.9562630594754108e+01
-2.7820151216508663e+01 1.6000000000000000e+01
ITEM: ATOMS id type x y z
1 1 15.2086 29.4255 -18.3867
2 1 16.1462 29.2043 -18.4529
3 1 15.7751 28.8139 -19.2032
4 1 15.7653 28.9487 -20.1552
5 1 16.6532 28.6922 -20.1174
6 1 17.4879 29.0866 -19.9523
7 1 18.3486 29.0662 -20.3639
8 1 18.9988 28.5041 -20.0448
9 1 19.6695 28.6931 -20.6683
10 1 19.8649 28.0218 -21.3389
11 1 18.9985 27.6706 -21.4907
12 1 19.147 27.2875 -20.6575
13 1 18.4737 26.7867 -21.0963
14 1 17.7705 26.8807 -21.7354
15 1 17.0461 27.3916 -22.1816
16 1 16.2885 27.9201 -22.1964
17 1 16.4311 28.0643 -23.12
18 1 16.6573 27.8461 -23.9867
19 1 16.1778 27.4627 -24.7024
20 1 15.8091 28.0832 -25.3687
21 1 15.3019 27.2927 -25.3319
22 1 14.9039 26.872 -26.1445
23 1 13.9868 26.8687 -25.9989
24 1 13.5748 27.1367 -26.7872
25 1 12.9005 26.7689 -27.3453
26 1 12.4343 27.4838 -26.9431
27 1 12.3472 28.2972 -26.4918
28 1 12.6664 28.6509 -27.3441
29 1 12.9847 29.3863 -27.8108
30 1 13.9798 29.407 -27.6995
31 1 14.8257 29.4183 -27.3275
32 1 14.2458 29.0227 -26.6453
ITEM: TIMESTEP
1920000
ITEM: NUMBER OF ATOMS
32
ITEM: BOX BOUNDS mm mm mm
-1.6000000000000000e+01 2.0334778167498740e+01
-1.6000000000000000e+01 3.1885966694876512e+01
-2.6356360080975502e+01 1.6000000000000000e+01
ITEM: ATOMS id type x y z
1 1 18.7973 31.9907 -26.3334
2 1 18.9339 31.4855 -25.5201
3 1 19.7714 31.8198 -25.1158
4 1 19.5406 31.2229 -24.435
5 1 18.9259 30.5987 -24.8679
6 1 17.986 30.5235 -24.9515
7 1 17.4291 30.5819 -24.1347
8 1 16.5333 30.3764 -24.2786
9 1 16.6911 29.4582 -24.0335
10 1 16.2436 28.5988 -23.9986
11 1 16.3989 27.6871 -23.9036
12 1 17.2961 27.4099 -23.8293
13 1 17.9062 27.6613 -23.2081
14 1 18.4873 27.2935 -22.5552
15 1 18.2706 27.1571 -21.7081
16 1 18.2576 26.6793 -20.8647
17 1 17.5353 26.1129 -21.0807
18 1 17.7806 26.2423 -22.0083
19 1 17.0944 25.5553 -22.1631
20 1 16.5546 24.8504 -22.3393
21 1 15.9292 24.2243 -22.2455
22 1 15.8366 24.3465 -23.1718
23 1 15.6624 24.1077 -24.0865
24 1 16.6362 24.0544 -23.9913
25 1 17.0265 24.2845 -23.145
26 1 17.856 24.3999 -22.7572
27 1 18.6177 24.8403 -23.0659
28 1 18.9706 23.959 -23.0801
29 1 19.6689 23.9648 -23.6522
30 1 19.9798 23.1132 -23.3103
31 1 19.9983 22.7376 -22.3844
32 1 19.9889 23.188 -21.5929
ITEM: TIMESTEP
1930000
ITEM: NUMBER OF ATOMS
32
ITEM: BOX BOUNDS mm mm mm
-1.6000000000000000e+01 1.6521974199984367e+01
-1.6000000000000000e+01 2.5941201984911068e+01
-2.7514643411178056e+01 1.6000000000000000e+01
ITEM: ATOMS id type x y z
1 1 15.0697 25.7541 -17.8554