ITEM: TIMESTEP
2700000
ITEM: NUMBER OF ATOMS
32
ITEM: BOX BOUNDS mm mm mm
-2.7749945073951395e+01 1.6000000000000000e+01
-1.6000000000000000e+01 4.5607415598545145e+01
-2.9810429633185830e+01 1.6000000000000000e+01
ITEM: ATOMS id type x y z
1 1 -21.1596 45.6013 -27.8952
2 1 -20.3332 45.1988 -27.891
3 1 -20.4122 44.6453 -27.0849
4 1 -21.1867 44.2069 -26.9112
5 1 -22.1646 44.1442 -26.7035
6 1 -22.627 43.3129 -26.6739
7 1 -22.9655 42.4555 -26.8316
8 1 -23.1656 42.2018 -25.9396
9 1 -22.5986 42.7465 -25.4477
10 1 -21.7179 42.9048 -25.2013
11 1 -20.8925 42.7655 -24.7339
12 1 -20.2509 42.2123 -24.3995
13 1 -20.025 41.2964 -24.461
14 1 -20.9209 40.9334 -24.1902
15 1 -21.4914 41.0954 -24.9428
16 1 -22.1679 40.5 -25.3025
17 1 -23.1095 40.4224 -25.4296
18 1 -23.7947 40.2092 -26.0494
19 1 -24.6922 40.3865 -25.8381
20 1 -25.2698 39.7073 -26.015
21 1 -25.2009 39.2956 -26.9147
22 1 -25.8459 38.7143 -26.5572
23 1 -26.203 38.3005 -27.3444
24 1 -27.0663 38.2341 -27.7131
25 1 -27.7456 37.6552 -27.8621
26 1 -26.9658 37.1101 -27.7593
27 1 -26.6535 36.3571 -28.2601
28 1 -26.3528 36.0429 -29.0848
29 1 -25.8786 36.506 -29.8058
30 1 -25.8545 37.0287 -28.9673
31 1 -25.6584 36.9039 -28.0621
32 1 -25.6987 37.1472 -27.1804
ITEM: TIMESTEP
2710000
ITEM: NUMBER OF ATOMS
32
ITEM: BOX BOUNDS mm mm mm
-2.3399120215009898e+01 1.6000000000000000e+01
-1.6000000000000000e+01 4.0096977235806861e+01
-3.4015807371883625e+01 1.6000000000000000e+01
ITEM: ATOMS id type x y z
1 1 -15.1727 38.6568 -33.2681
2 1 -15.3416 38.0022 -32.5459
3 1 -16.1999 37.7659 -32.186
4 1 -16.2807 38.0116 -31.2843
5 1 -16.6953 38.9095 -31.3128
6 1 -17.5804 39.0855 -31.5221
7 1 -18.0099 38.2634 -31.7422
8 1 -18.1152 38.2147 -32.6776
9 1 -18.1065 39.1647 -32.4373
10 1 -18.3962 39.9639 -32.9261
11 1 -19.272 40.0373 -32.7526
12 1 -20.0155 39.5563 -32.4843
13 1 -20.8067 39.1151 -32.3168
14 1 -21.0539 38.6952 -31.5493
15 1 -21.8868 38.718 -31.932
16 1 -22.5109 38.0335 -31.8559
17 1 -22.8377 37.3143 -31.3929
18 1 -23.3295 36.4705 -31.4403
19 1 -23.4934 35.951 -30.6357
20 1 -23.0666 35.6808 -29.8296
21 1 -23.3177 34.9678 -29.2914
22 1 -23.1044 34.1116 -29.6646
23 1 -22.4179 33.4795 -29.4466
24 1 -21.7452 32.9119 -29.9205
25 1 -21.5285 32.022 -29.9228
26 1 -21.9713 32.2743 -30.7883
27 1 -21.825 32.0524 -31.7007
28 1 -21.6114 31.4788 -32.3276
29 1 -22.1419 31.2532 -33.0717
30 1 -22.4116 31.2765 -33.9446
31 1 -21.9113 32.0184 -34.037
32 1 -21.3743 31.9983 -33.2601
ITEM: TIMESTEP
2720000
ITEM: NUMBER OF ATOMS
32
ITEM: BOX BOUNDS mm mm mm
-2.5210523816722034e+01 1.6000000000000000e+01
-1.6000000000000000e+01 4.5483122634115873e+01
-3.3303873696087905e+01 1.6000000000000000e+01
ITEM: ATOMS id type x y z
1 1 -14.1272 45.5778 -29.9106
2 1 -14.5381 45.675 -30.7259
3 1 -15.3376 45.443 -31.2856
4 1 -15.9902 44.8605 -31.6627
5 1 -16.3317 44.0444 -31.9055
6 1 -17.0638 43.8291 -31.425
7 1 -17.1408 42.8868 -31.2167
8 1 -18.0622 42.6249 -31.345
9 1 -18.3643 41.8728 -31.7167
10 1 -19.16 41.994 -31.2165
11 1 -19.8935 41.7673 -31.7775
12 1 -20.1144 41.0777 -31.225
13 1 -20.5308 40.3961 -30.7984
14 1 -20.3316 39.5482 -31.0869
15 1 -20.9473 39.023 -31.6591
16 1 -20.6011 38.4926 -32.3258
17 1 -20.2471 37.6777 -32.5205
18 1 -20.7945 36.9072 -32.2873
19 1 -21.0989 36.4046 -32.9754
20 1 -21.8164 35.9134 -33.3095
21 1 -21.6772 35.1004 -32.8952
22 1 -21.0307 34.7422 -32.3123
23 1 -20.9587 33.8232 -32.1257
24 1 -21.3188 33.2384 -31.5036
25 1 -21.3611 32.4143 -30.9301
26 1 -21.8324 32.1683 -30.1489
27 1 -22.2812 32.2623 -29.2961
28 1 -22.4469 33.0611 -28.9101
29 1 -23.1507 32.4602 -28.6272
30 1 -23.6875 32.9978 -29.1466
31 1 -24.647 32.8342 -29.1316
32 1 -25.4475 32.7066 -29.6838
ITEM: TIMESTEP
2730000
ITEM: NUMBER OF ATOMS
32
ITEM: BOX BOUNDS mm mm mm
-2.6788903954871628e+01 1.6000000000000000e+01
-1.6000000000000000e+01 4.4417110190733908e+01
-3.6920036879974987e+01 1.6000000000000000e+01
ITEM: ATOMS id type x y z
1 1 -25.827 44.3686 -29.541
2 1 -25.6748 43.5587 -28.9885
3 1 -26.287 43.257 -28.3598
4 1 -26.7626 43.0652 -29.2123
5 1 -26.1892 42.4366 -29.6904
6 1 -25.2985 42.3792 -29.2971
7 1 -24.7993 42.0538 -30.0251
8 1 -25.2951 41.2608 -30.202
9 1 -24.8609 41.7243 -30.9932
10 1 -25.5194 42.0278 -31.5173
11 1 -25.9436 42.7202 -32.0103
12 1 -26.1427 42.1735 -32.8004
13 1 -25.8084 41.3127 -33.0934
14 1 -25.4305 40.9146 -33.9047
15 1 -25.0113 40.9362 -34.7115
16 1 -24.8674 40.5781 -35.6256
17 1 -24.9213 39.6926 -35.7814
18 1 -24.5767 38.8389 -35.5959
19 1 -24.7622 38.155 -35.0011
20 1 -24.2042 37.4321 -35.1632
21 1 -23.8795 36.7564 -34.6162
22 1 -23.5222 35.9341 -34.3711
23 1 -23.6518 36.1051 -33.4739
24 1 -23.4399 35.1372 -33.305
25 1 -23.394 34.5145 -33.9475
26 1 -22.9963 34.1581 -34.7337
27 1 -22.9689 33.6707 -35.532
28 1 -22.8114 32.9071 -36.0469
29 1 -22.3633 32.551 -36.7958
30 1 -22.2484 31.7498 -36.2012
31 1 -21.4711 31.567 -35.6287
32 1 -21.1114 32.1413 -35.0298
ITEM: TIMESTEP
2740000
ITEM: NUMBER OF ATOMS
32
ITEM: BOX BOUNDS mm mm mm
-3.0815817209813055e+01 1.6000000000000000e+01
-1.6000000000000000e+01 4.4593392532131681e+01
-3.8307667947248575e+01 1.6000000000000000e+01
ITEM: ATOMS id type x y z
1 1 -30.72 36.8596 -38.3194
2 1 -29.9959 37.2893 -37.8625
3 1 -29.4077 36.8777 -37.1793
4 1 -28.9909 36.3503 -36.5277
5 1 -29.063 36.0137 -35.587
6 1 -28.4564 35.5018 -35.0811
7 1 -27.9491 34.7046 -34.9896
8 1 -27.1581 34.7042 -34.4689
9 1 -26.2767 35.1061 -34.412
10 1 -26.031 35.8355 -34.945
11 1 -26.943 35.8393 -34.7733
12 1 -27.5434 36.3834 -34.2081
13 1 -27.2573 37.3045 -34.1319
14 1 -28.0131 37.7698 -34.418
15 1 -28.656 37.1315 -34.2383
16 1 -28.5669 37.1904 -35.1765
17 1 -28.4679 38.137 -35.3714
18 1 -27.8811 38.583 -35.9743
19 1 -28.1567 39.2019 -36.6389
20 1 -27.6915 39.9535 -36.2964
21 1 -27.0328 40.063 -35.6432
22 1 -26.7878 40.9704 -35.5873
23 1 -27.3305 41.6158 -35.2351
24 1 -27.2912 42.4709 -34.7678
25 1 -28.1891 42.5933 -34.6885
26 1 -28.5777 43.4163 -35.0108
27 1 -28.1196 44.1472 -35.3843
28 1 -27.2168 44.4137 -35.5679
29 1 -26.6626 44.4517 -36.321
30 1 -25.9973 44.9679 -36.8099
31 1 -25.2953 44.8206 -36.2093
32 1 -24.8384 44.6564 -35.3879
ITEM: TIMESTEP
2750000
ITEM: NUMBER OF ATOMS
32
ITEM: BOX BOUNDS mm mm mm
-2.8962506916735766e+01 1.6000000000000000e+01
-1.6000000000000000e+01 4.6276600861908420e+01
-4.0753459374355245e+01 1.6000000000000000e+01
ITEM: ATOMS id type x y z
1 1 -25.7769 38.8885 -33.4916
2 1 -25.6127 39.3818 -32.6944
3 1 -25.699 38.9453 -31.8529
4 1 -25.7834 38.4043 -31.0874
5 1 -26.6212 38.6854 -30.8102
6 1 -27.3657 39.1472 -31.061
7 1 -27.9319 39.1934 -31.7665
8 1 -28.8631 39.2625 -31.9371
9 1 -28.948 39.9918 -31.357
10 1 -28.4954 40.8189 -31.4971
11 1 -27.6954 41.2421 -31.3921
12 1 -26.7825 41.2276 -31.5508
13 1 -26.5442 42.0557 -31.1709
14 1 -26.5791 42.837 -31.6826
15 1 -26.9899 43.6736 -31.6152
16 1 -27.1259 44.5256 -31.2098
17 1 -27.5575 45.4122 -31.1136
18 1 -28.4171 45.8123 -31.3496
19 1 -27.9285 45.619 -32.1318
20 1 -27.8689 45.8584 -33.0278
21 1 -27.4357 46.2612 -33.7538
22 1 -27.6538 46.0882 -34.5971
23 1 -27.1007 46.1027 -35.362
24 1 -27.5401 46.163 -36.1855
25 1 -26.6538 45.8906 -36.3792
26 1 -26.3071 45.8006 -37.2322
27 1 -26.2191 44.8409 -37.3844
28 1 -25.8953 44.6636 -38.2143
29 1 -25.2586 44.0954 -38.6448
30 1 -24.9556 43.2618 -38.9184
31 1 -24.5895 43.1294 -39.7553
32 1 -24.5599 42.8149 -40.6544
ITEM: TIMESTEP
2760000
ITEM: NUMBER OF ATOMS
32
ITEM: BOX BOUNDS mm mm mm
-2.7507099216977643e+01 1.6000000000000000e+01
-1.6000000000000000e+01 5.1409788822334271e+01
-3.4461624587873494e+01 1.6000000000000000e+01
ITEM: ATOMS id type x y z
1 1 -23.7588 41.7572 -30.7737
2 1 -23.2465 42.501 -30.4781
3 1 -23.4689 43.4057 -30.2041
4 1 -22.9067 44.1527 -30.2834
5 1 -22.5016 43.812 -31.0436
6 1 -23.1816 43.5523 -31.5877
7 1 -23.988 43.7052 -32.0722
8 1 -24.0966 44.4281 -32.6449
9 1 -24.8883 44.1344 -33.0052
10 1 -25.7835 43.9117 -33.2627
11 1 -25.4963 44.8161 -33.444
12 1 -25.4561 45.5098 -34.0186
13 1 -25.6181 46.0645 -34.7465
14 1 -26.3311 46.452 -34.2761
15 1 -25.7319 46.9644 -33.7577
16 1 -24.9635 47.3119 -34.1693
17 1 -24.3134 46.8831 -33.6578
18 1 -24.652 47.3104 -32.9026
19 1 -25.4171 47.065 -32.39
20 1 -25.9926 46.4444 -32.7834
21 1 -25.9041 45.5966 -32.2997
22 1 -25.8792 46.1002 -31.4892
23 1 -25.7896 47.0931 -31.3651
24 1 -26.272 47.9279 -31.4119
25 1 -26.8239 48.5854 -31.7345
26 1 -26.3146 49.4243 -31.6137
27 1 -26.5433 50.059 -30.9296
28 1 -27.3654 50.4383 -31.1466
29 1 -27.6115 50.5761 -32.0147
30 1 -26.9159 50.8219 -32.6268
31 1 -27.2843 51.6134 -33.0291
32 1 -27.66 51.4909 -33.911
ITEM: TIMESTEP
2770000
ITEM: NUMBER OF ATOMS
32
ITEM: BOX BOUNDS mm mm mm
-2.8305307060210882e+01 1.6000000000000000e+01
-1.6000000000000000e+01 5.1757014949187642e+01
-3.4230816838431814e+01 1.6000000000000000e+01
ITEM: ATOMS id type x y z
1 1 -20.839 47.4608 -32.5216
2 1 -20.6809 47.848 -31.6788
3 1 -20.2543 48.4902 -31.1279
4 1 -20.4002 48.5556 -30.2117
5 1 -20.4613 49.4917 -29.9521
6 1 -20.7848 50.3319 -30.1483
7 1 -21.2583 51.0664 -30.3248
8 1 -22.0552 51.6263 -30.2862
9 1 -22.6282 51.3047 -30.926
10 1 -23.5637 51.1853 -30.9997
11 1 -24.4241 50.9343 -31.2666
12 1 -24.9326 51.1068 -32.0318
13 1 -25.3651 51.403 -32.8115
14 1 -26.259 51.6084 -32.8619
15 1 -27.1394 51.4264 -33.1776
16 1 -28.011 51.0901 -33.1258
17 1 -28.0119 50.1878 -33.3826
18 1 -28.477 49.4117 -33.3056
19 1 -28.0524 48.824 -33.909
20 1 -27.7925 47.9526 -34.1953
21 1 -27.6709 47.3629 -33.4857
22 1 -27.0574 47.1374 -32.8263
23 1 -26.732 48.0257 -32.6326
24 1 -27.0176 48.8288 -32.1812
25 1 -27.2273 48.0796 -31.7056
26 1 -26.539 47.3864 -31.805
27 1 -25.7366 47.0819 -32.2092
28 1 -25.4192 47.7827 -31.6957
29 1 -25.2372 48.5745 -32.1582
30 1 -24.397 48.4483 -31.8106
31 1 -24.5277 48.5313 -30.8835
32 1 -24.9265 49.1792 -31.3807
ITEM: TIMESTEP
2780000
ITEM: NUMBER OF ATOMS
32
ITEM: BOX BOUNDS mm mm mm
-3.1554011742547647e+01 1.6000000000000000e+01
-1.6000000000000000e+01 5.3289289455939844e+01
-3.0086009759210903e+01 1.6000000000000000e+01
ITEM: ATOMS id type x y z
1 1 -25.7409 48.8311 -28.2723
2 1 -25.6239 49.7595 -28.0625
3 1 -25.3559 49.9355 -27.1759
4 1 -25.3533 49.2647 -26.5067
5 1 -24.4386 49.3546 -26.4188
6 1 -23.7763 49.9486 -26.0314
7 1 -23.507 50.6845 -26.4902
8 1 -23.8643 51.5089 -26.2675
9 1 -23.8668 51.5231 -25.3408
10 1 -24.5579 51.8458 -24.7464
11 1 -24.6793 52.235 -25.6289
12 1 -24.7588 52.0169 -26.5533
13 1 -25.6621 52.0624 -26.3998
14 1 -26.3161 52.2832 -27.0368
15 1 -26.121 52.5135 -27.9156
16 1 -27.0278 52.6663 -27.7284
17 1 -27.721 53.1815 -28.1249
18 1 -28.0723 52.3764 -27.8386
19 1 -27.5789 51.6115 -27.9648
20 1 -27.7691 51.5108 -28.8934
21 1 -28.2126 51.4237 -29.6949
22 1 -29.1669 51.3339 -29.8803
23 1 -29.323 50.4378 -30.1173
24 1 -29.2177 49.7704 -29.472
25 1 -29.9005 49.2495 -29.073
26 1 -30.4692 49.3251 -28.3364
27 1 -30.774 49.5189 -27.4396
28 1 -31.229 49.6603 -26.6078
29 1 -31.7847 49.2273 -25.9441
30 1 -31.2869 48.5887 -25.3571
31 1 -30.4157 48.2819 -25.0668
32 1 -29.6297 48.6274 -24.6436
ITEM: TIMESTEP
2790000
ITEM: NUMBER OF ATOMS
32
ITEM: BOX BOUNDS mm mm mm
-2.9579734995084365e+01 1.6000000000000000e+01
-1.6000000000000000e+01 5.7454831836308074e+01
-3.3042023191233831e+01 1.6000000000000000e+01
ITEM: ATOMS id type x y z
1 1 -22.5762 51.1257 -24.3839
2 1 -22.4113 50.2399 -24.3535
3 1 -21.8746 49.8062 -24.9678
4 1 -22.6854 49.7177 -25.4206
5 1 -23.4527 49.9118 -25.8021
6 1 -23.5247 50.7418 -26.4301
7 1 -23.374 51.3365 -27.1385
8 1 -23.6146 52.2001 -27.3607
9 1 -24.0662 53.0352 -27.7871
10 1 -24.6366 53.7831 -27.9665
11 1 -25.2232 53.5119 -28.6679
12 1 -25.9879 53.0875 -29.0332
13 1 -26.015 52.7664 -29.9217
14 1 -26.4491 52.6746 -30.7631
15 1 -26.8635 52.9883 -31.5024
16 1 -26.845 53.3339 -32.3184
17 1 -26.218 53.6614 -32.8984
18 1 -26.2491 54.5517 -32.485
19 1 -25.9333 55.072 -31.7623
20 1 -26.4347 55.4287 -31.0693
21 1 -27.1503 55.7984 -31.5367
22 1 -28.0256 55.6397 -31.2591
23 1 -28.24 56.0224 -30.4382
24 1 -28.0171 55.5983 -29.6499
25 1 -28.5783 56.0247 -29.0211
26 1 -28.8745 56.7722 -28.5643
27 1 -29.2161 57.4388 -28.0388
28 1 -29.3244 57.2283 -27.0699
29 1 -29.747 56.6094 -26.507
30 1 -29.7576 56.4785 -25.5988
31 1 -29.335 56.2062 -24.7631
32 1 -28.7058 56.8156 -24.3936
ITEM: TIMESTEP
2800000
ITEM: NUMBER OF ATOMS
32
ITEM: BOX BOUNDS mm mm mm
-2.9132630830758682e+01 1.6000000000000000e+01
-1.6000000000000000e+01 5.4333869207405890e+01
-3.0389279086299677e+01 1.6000000000000000e+01
ITEM: ATOMS id type x y z
1 1 -28.969 48.9589 -28.3668
2 1 -28.6158 49.406 -29.0774
3 1 -27.7335 49.186 -28.89
4 1 -27.1536 49.0995 -29.5778
5 1 -26.8148 48.3072 -29.2218
6 1 -26.2581 48.1344 -28.4815
7 1 -25.5573 48.8068 -28.5396
8 1 -25.05 49.1453 -29.2428
9 1 -24.3636 49.0056 -29.894
10 1 -23.5113 48.6166 -30.0149
11 1 -22.8107 49.2019 -29.8376
12 1 -22.2513 49.9561 -29.6485
13 1 -22.7264 50.4686 -30.3158
14 1 -23.7069 50.4769 -30.3179
15 1 -24.4521 51.015 -30.1309
16 1 -25.1522 51.6269 -29.8906
17 1 -25.9362 52.1485 -30.1205
18 1 -25.8904 53.1261 -30.0999
19 1 -25.77 53.5506 -29.276
20 1 -25.5322 53.9221 -28.3372
21 1 -25.1576 54.4299 -29.0325
22 1 -24.3126 53.9685 -29.0054
23 1 -24.1645 53.3163 -28.3405
24 1 -23.4722 52.7171 -28.3168
25 1 -23.3085 51.9768 -27.8017
26 1 -22.8221 52.0468 -26.9624
27 1 -22.2844 51.6902 -26.2643
28 1 -22.8538 51.0145 -25.7775
29 1 -23.2067 50.1877 -25.6121
30 1 -23.1102 49.8737 -24.7317
31 1 -23.1656 49.9569 -23.7337
32 1 -22.8351 50.8932 -23.6868
ITEM: TIMESTEP
2810000
ITEM: NUMBER OF ATOMS
32
ITEM: BOX BOUNDS mm mm mm
-3.1636169316881709e+01 1.6000000000000000e+01
-1.6000000000000000e+01 5.7705687474722559e+01
-3.2885856499994638e+01 1.6000000000000000e+01
ITEM: ATOMS id type x y z
1 1 -31.2957 54.4792 -28.6374
2 1 -30.8891 55.3789 -28.7667
3 1 -31.4899 56.117 -28.6893
4 1 -31.5528 56.9431 -29.1265
5 1 -31.2274 57.3827 -28.3863
6 1 -30.5227 57.4169 -29.0193
7 1 -29.8934 57.3603 -29.7516
8 1 -29.4209 57.4304 -28.9415
9 1 -28.746 56.9826 -29.383
10 1 -27.8171 57.0664 -29.7103
11 1 -27.7788 56.1308 -29.6279
12 1 -27.1664 55.5609 -29.1992
13 1 -26.7142 56.4082 -28.9765
14 1 -25.7623 56.5688 -29.0251
15 1 -26.2273 57.2999 -29.3764
16 1 -26.0154 57.0372 -30.2161
17 1 -26.0067 56.8776 -31.1361
18 1 -25.672 56.9291 -32.0386
19 1 -26.3316 56.7522 -32.6996
20 1 -25.7726 55.979 -32.6763
21 1 -25.6822 55.4784 -31.9137
22 1 -25.911 54.6618 -31.5651
23 1 -26.3701 55.2956 -31.0347
24 1 -25.4266 55.5002 -30.9009
25 1 -24.985 55.7406 -30.0885
26 1 -24.5381 55.2031 -29.4572
27 1 -23.8173 54.8354 -29.8691
28 1 -23.7039 54.3065 -30.6128
29 1 -23.4639 53.4303 -30.2867
30 1 -23.5072 52.5529 -30.5119
31 1 -23.4829 51.5971 -30.3476
32 1 -23.4949 51.2565 -31.294
ITEM: TIMESTEP
2820000
ITEM: NUMBER OF ATOMS
32
ITEM: BOX BOUNDS mm mm mm
-3.4888111540410115e+01 1.6000000000000000e+01
-1.6000000000000000e+01 5.8854919640759157e+01
-3.3374014331320289e+01 1.6000000000000000e+01
ITEM: ATOMS id type x y z
1 1 -34.7834 57.6328 -30.9182
2 1 -34.2391 58.2857 -31.3066
3 1 -33.6803 58.8087 -31.7995
4 1 -32.9326 58.3696 -31.4092
5 1 -32.0304 58.6587 -31.2891
6 1 -31.3347 58.2576 -30.7541
7 1 -30.4278 58.5845 -30.6836
8 1 -29.9857 58.2035 -31.4166
9 1 -29.6438 57.8775 -32.2085
10 1 -29.8993 58.4265 -32.8933
11 1 -29.9474 58.3068 -33.8113
12 1 -29.641 57.5934 -33.3158
13 1 -30.189 56.826 -33.1683
14 1 -29.9934 56.7516 -32.1916
15 1 -29.0923 56.6899 -32.1714
16 1 -28.5453 56.5201 -31.4327
17 1 -27.8687 57.0505 -31.1066
18 1 -27.1218 56.5271 -30.8906
19 1 -27.1418 55.6705 -30.5445
20 1 -27.7279 55.5174 -29.7836
21 1 -27.4178 55.0753 -29.0951
22 1 -26.9891 54.2553 -28.8996
23 1 -27.1139 53.7331 -28.1192
24 1 -28.043 53.9102 -28.1791
25 1 -28.9059 53.4639 -28.3337
26 1 -29.4917 52.8588 -28.7278
27 1 -28.9684 52.5079 -29.4269
28 1 -29.7296 52.0903 -29.8623
29 1 -29.8827 51.3476 -29.3387
30 1 -29.0724 50.9493 -29.7283
31 1 -28.7612 51.2221 -28.8587
32 1 -28.6114 51.9452 -28.2261
ITEM: TIMESTEP
2830000
ITEM: NUMBER OF ATOMS
32
ITEM: BOX BOUNDS mm mm mm
-3.3305361858451832e+01 1.6000000000000000e+01
-1.6000000000000000e+01 6.0435287499060763e+01
-3.1053982139061279e+01 1.6000000000000000e+01
ITEM: ATOMS id type x y z
1 1 -22.9043 60.4312 -28.3276
2 1 -23.7748 60.231 -28.0853
3 1 -23.5803 59.9545 -27.1644
4 1 -24.2436 59.408 -27.4622
5 1 -24.2944 58.4931 -27.1783
6 1 -23.6549 58.5181 -27.9217
7 1 -23.4363 57.852 -28.5219
8 1 -23.531 57.2576 -29.2439
9 1 -24.2157 57.0373 -29.9184
10 1 -24.8343 56.2907 -30.0589
11 1 -25.6047 55.8316 -30.3997
12 1 -26.3993 55.8352 -31.0326
13 1 -27.154 55.3107 -30.7984
14 1 -27.7342 54.7126 -30.3988
15 1 -28.1335 53.9215 -30.0016
16 1 -28.7267 53.2468 -30.2616
17 1 -29.5917 53.2638 -29.8177
18 1 -30.3204 53.375 -29.2132
19 1 -30.915 53.7366 -29.846
20 1 -31.9017 53.67 -29.8175
21 1 -31.7505 52.7834 -29.6302
22 1 -31.1403 52.2188 -29.1824
23 1 -31.902 51.6659 -28.98
24 1 -31.8128 51.3252 -28.1312
25 1 -32.3448 51.888 -27.514
26 1 -33.0486 52.4522 -27.792
27 1 -32.5998 53.2259 -27.5879
28 1 -33.0534 53.8179 -27.0844
29 1 -33.289 54.4226 -26.3452
30 1 -33.1888 54.9155 -25.4834
31 1 -32.3561 55.034 -25.0647
32 1 -31.8885 55.0696 -24.255
ITEM: TIMESTEP
2840000
ITEM: NUMBER OF ATOMS
32
ITEM: BOX BOUNDS mm mm mm
-2.9141343961430348e+01 1.6000000000000000e+01
-1.6000000000000000e+01 5.8172463488460060e+01
-3.4906188469498069e+01 1.6000000000000000e+01
ITEM: ATOMS id type x y z
1 1 -26.998 57.8496 -34.8735
2 1 -26.2911 57.3152 -35.129
3 1 -25.9424 57.7263 -34.2952
4 1 -25.4542 58.318 -33.7676
5 1 -25.5521 57.6994 -33.043
6 1 -25.4968 57.4837 -32.0881
7 1 -26.0628 56.8835 -31.6746
8 1 -25.7712 56.1716 -31.1689
9 1 -25.9192 55.3084 -30.8521
10 1 -25.8014 55.0467 -31.7636
11 1 -26.3876 54.5187 -32.3498
12 1 -27.2058 54.0341 -32.3917
13 1 -27.8299 53.5339 -32.8551
14 1 -27.6283 52.9214 -32.1545
15 1 -28.117 53.3032 -31.4089
16 1 -28.4826 52.9258 -30.6701
17 1 -28.4343 52.0005 -30.8787
18 1 -28.4199 51.1758 -31.2639
19 1 -27.6521 51.0015 -30.6848
20 1 -26.8593 51.144 -30.1958
21 1 -26.0287 51.1522 -29.7565
22 1 -25.7267 51.9145 -29.2908
23 1 -26.1246 52.1854 -28.5037
24 1 -26.7275 52.5859 -27.9199
25 1 -27.3009 52.5078 -28.6401
26 1 -28.0856 52.7528 -29.1335
27 1 -27.2927 53.0632 -29.5971
28 1 -27.1109 54.0405 -29.6843
29 1 -26.9882 54.8368 -29.2336
30 1 -27.7246 55.0198 -29.801
31 1 -28.2985 54.9205 -30.5137
32 1 -29.1065 55.4211 -30.5312
ITEM: TIMESTEP
2850000
ITEM: NUMBER OF ATOMS
32
ITEM: BOX BOUNDS mm mm mm
-3.0397243007354547e+01 1.6000000000000000e+01
-1.6000000000000000e+01 5.8838552619793354e+01
-3.4246720075932778e+01 1.6000000000000000e+01
ITEM: ATOMS id type x y z
1 1 -27.486 58.2049 -34.2496
2 1 -26.5784 58.4242 -34.0137
3 1 -26.0269 58.9107 -33.4207
4 1 -25.1746 58.4616 -33.4673
5 1 -25.5666 57.8604 -32.8628
6 1 -25.7887 57.6439 -31.9444
7 1 -25.1453 57.4774 -31.2477
8 1 -24.229 57.7082 -31.1604
9 1 -23.3765 57.8434 -31.4794
10 1 -23.1723 56.9515 -31.2221
11 1 -23.7417 56.2545 -31.5412
12 1 -23.487 55.9198 -32.3365
13 1 -23.9219 55.3203 -32.9926
14 1 -23.7672 54.9604 -32.1774
15 1 -23.2148 54.5233 -31.5087
16 1 -23.891 53.946 -31.2387
17 1 -24.0175 53.2033 -30.6698
18 1 -23.8547 53.0407 -29.7452
19 1 -24.5659 52.5375 -29.4036
20 1 -25.3765 52.5733 -28.9791
21 1 -26.1485 52.7955 -29.5103
22 1 -26.5096 52.2237 -30.1378
23 1 -27.2002 51.8262 -29.6597
24 1 -27.651 52.3403 -28.946
25 1 -27.1003 53.097 -28.6383
26 1 -27.7986 53.3616 -28.0042
27 1 -27.9059 54.1657 -27.5813
28 1 -28.335 53.8892 -26.8193
29 1 -29.1601 53.415 -26.7638
30 1 -29.1342 52.4819 -27.0118
31 1 -29.518 51.6231 -27.0645
32 1 -30.3663 51.2423 -27.0848
ITEM: TIMESTEP
2860000
ITEM: NUMBER OF ATOMS
32
ITEM: BOX BOUNDS mm mm mm
-2.4496446535431627e+01 1.6000000000000000e+01
-1.6000000000000000e+01 5.8876575656355598e+01
-3.3538977623091512e+01 1.6000000000000000e+01
ITEM: ATOMS id type x y z
1 1 -20.8065 58.9798 -29.721
2 1 -21.3822 58.4632 -30.2895
3 1 -21.737 57.6154 -30.3271
4 1 -21.3867 56.7872 -30.1561
5 1 -21.3839 55.9707 -30.7033
6 1 -21.603 55.1273 -30.4308
7 1 -22.2574 54.6144 -30.9206
8 1 -22.5707 54.8607 -31.7806
9 1 -23.071 54.8757 -32.6301
10 1 -23.7205 54.5064 -33.2109
11 1 -24.6558 54.599 -33.2809
12 1 -24.7823 54.1944 -32.4765
13 1 -24.8355 53.5522 -31.747
14 1 -24.0629 53.0234 -31.5746
15 1 -23.4591 53.2784 -32.3106
16 1 -22.6943 52.8463 -32.4409
17 1 -21.9286 52.8085 -32.945
18 1 -21.8515 51.8778 -33.1589
19 1 -22.3515 51.8278 -32.4009
20 1 -21.945 51.0624 -32.0239
21 1 -21.0658 50.659 -31.9786
22 1 -20.6115 49.9297 -32.3292
23 1 -21.0376 49.1522 -32.6704
24 1 -20.7766 48.2474 -32.5191
25 1 -19.9935 47.7765 -32.7796
26 1 -19.6122 47.5777 -33.62
27 1 -19.0173 47.3464 -32.8838
28 1 -18.2537 47.6022 -32.4191
29 1 -17.7457 46.9012 -32.0193
30 1 -17.0848 47.4903 -32.2941
31 1 -16.4332 47.938 -31.7973
32 1 -15.7458 48.4593 -31.4726
ITEM: TIMESTEP
2870000
ITEM: NUMBER OF ATOMS
32
ITEM: BOX BOUNDS mm mm mm
-2.3451388698470158e+01 1.6000000000000000e+01
-1.6000000000000000e+01 5.1356506778878725e+01
-3.3807500620389881e+01 1.6000000000000000e+01
ITEM: ATOMS id type x y z
1 1 -21.2109 51.6511 -31.6033
2 1 -21.3555 51.5055 -32.4996
3 1 -21.615 50.6689 -32.7517
4 1 -21.9278 50.043 -33.3899
5 1 -22.6715 49.5912 -33.7729
6 1 -23.1198 48.8103 -33.4838
7 1 -23.0248 48.8794 -32.4875
8 1 -23.5837 49.4455 -31.9596
9 1 -23.2591 49.1729 -31.0949
10 1 -22.4396 49.5837 -31.1975
11 1 -21.5316 49.6132 -31.4227
12 1 -20.9201 49.5935 -30.7198
13 1 -21.2817 48.9527 -30.0447
14 1 -21.6922 48.284 -29.5194
15 1 -20.9459 47.8013 -29.7504
16 1 -20.7226 46.864 -29.8261
17 1 -20.4698 47.3078 -30.6332
18 1 -19.6981 47.2161 -31.0982
19 1 -18.938 47.1529 -30.5808
20 1 -18.6056 46.3307 -30.4536
21 1 -18.6763 45.4074 -30.1086
22 1 -18.5851 45.0237 -30.9551
23 1 -18.1557 44.1715 -30.9302
24 1 -17.2437 44.3013 -30.7231
25 1 -16.9033 45.131 -30.519
26 1 -17.6623 45.404 -30.0684
27 1 -17.287 46.1998 -29.7493
28 1 -17.1397 47.1319 -29.7243
29 1 -17.7545 47.806 -29.5647
30 1 -18.5885 48.2637 -29.825
31 1 -18.865 48.9373 -30.3786
32 1 -19.2383 48.6516 -31.2217
ITEM: TIMESTEP
2880000
ITEM: NUMBER OF ATOMS
32
ITEM: BOX BOUNDS mm mm mm
-2.3587726434194320e+01 1.6000000000000000e+01
-1.6000000000000000e+01 5.2048105633238187e+01
-3.4207570471469936e+01 1.6000000000000000e+01
ITEM: ATOMS id type x y z
1 1 -23.2271 52.0904 -29.1234
2 1 -22.4169 51.6798 -29.2645
3 1 -22.0167 50.8229 -29.1111
4 1 -21.407 50.9074 -29.8303
5 1 -20.9539 50.9584 -30.6804
6 1 -20.6157 51.306 -31.4495
7 1 -20.3903 52.0758 -31.9002
8 1 -20.1198 52.0615 -32.7906
9 1 -20.167 52.1617 -33.7439
10 1 -19.3226 51.7849 -33.5207
11 1 -18.8804 52.2616 -32.8172
12 1 -18.9692 51.6277 -32.1394
13 1 -18.7598 50.7154 -32.2024
14 1 -18.2091 49.9427 -32.2362
15 1 -18.0331 49.3943 -31.4525
16 1 -18.9207 49.269 -31.1162
17 1 -18.7615 48.649 -30.3842
18 1 -18.9886 47.7466 -30.28
19 1 -19.6347 47.4974 -30.9191
20 1 -20.3908 47.7318 -31.3583
21 1 -20.9144 47.2847 -31.9044
22 1 -21.762 47.1895 -31.5572
23 1 -22.6895 46.9976 -31.3533
24 1 -23.3475 46.8958 -32.0637
25 1 -23.7042 46.4152 -32.7553
26 1 -23.6757 45.8928 -33.4671
27 1 -23.7738 45.0572 -33.8935
28 1 -22.823 44.7908 -34.0727
29 1 -22.5402 43.883 -34.2481
30 1 -22.0654 43.0352 -34.0595
31 1 -21.39 42.5375 -33.5789
32 1 -21.1745 41.7193 -33.1693
ITEM: TIMESTEP
2890000
ITEM: NUMBER OF ATOMS
32
ITEM: BOX BOUNDS mm mm mm
-2.0107093965017693e+01 1.6000000000000000e+01
-1.6000000000000000e+01 5.3344702197860649e+01
-2.8371676010782561e+01 1.6000000000000000e+01
ITEM: ATOMS id type x y z
1 1 -19.8799 47.4175 -23.2492
2 1 -20.0229 47.6971 -22.3022
3 1 -19.698 48.3729 -21.711
4 1 -18.9511 47.8209 -21.6299
5 1 -18.1176 47.5264 -21.9045
6 1 -17.3038 47.1918 -22.1818
7 1 -16.5237 47.6792 -22.4011
8 1 -16.096 47.528 -23.2733
9 1 -16.3151 47.0656 -24.0785
10 1 -16.2009 47.0381 -25.003
11 1 -15.656 46.7749 -25.7347
12 1 -14.9944 47.2616 -25.2779
13 1 -14.7826 48.2158 -25.5838
14 1 -14.917 49.0027 -25.0724
15 1 -15.1947 48.5261 -24.2754
16 1 -16.1051 48.3413 -24.6104
17 1 -16.8662 47.9716 -24.2164
18 1 -17.6116 47.976 -24.7188
19 1 -18.3857 48.5097 -24.8581
20 1 -17.9564 49.1881 -25.4446
21 1 -18.3295 49.47 -26.3018
22 1 -18.5333 50.4111 -26.2845
23 1 -19.2262 50.8579 -26.7488
24 1 -19.3584 50.6717 -27.6716
25 1 -19.731 51.2375 -28.3596
26 1 -18.8599 51.5287 -28.2998
27 1 -17.9664 51.3353 -28.1298
28 1 -17.6234 52.0205 -27.552
29 1 -17.3073 52.7344 -26.9903
30 1 -17.3682 52.7592 -26.0966
31 1 -18.2864 52.7744 -26.2967
32 1 -18.9267 53.4184 -26.7462
ITEM: TIMESTEP
2900000
ITEM: NUMBER OF ATOMS
32
ITEM: BOX BOUNDS mm mm mm
-1.9739989934210289e+01 1.6000000000000000e+01
-1.6000000000000000e+01 5.1397558710132706e+01
-3.0925318671549633e+01 1.6000000000000000e+01
ITEM: ATOMS id type x y z
1 1 -15.8128 44.2007 -24.6326
2 1 -15.8941 44.6336 -25.4441
3 1 -16.4698 45.1621 -24.9167
4 1 -16.7448 46.0075 -24.5244
5 1 -17.45 45.9179 -25.1291
6 1 -17.6399 46.2484 -25.9863
7 1 -17.8968 45.3903 -26.1722
8 1 -17.4739 45.3848 -27.028
9 1 -17.3874 46.3389 -27.25
10 1 -17.7649 46.6943 -27.9897
11 1 -17.4415 47.439 -28.5052
12 1 -16.918 48.0891 -28.9142
13 1 -17.7795 47.9516 -29.3167
14 1 -18.3814 47.3293 -29.767
15 1 -17.7013 47.5747 -30.3863
16 1 -16.894 48.0849 -30.3129
17 1 -15.9665 48.1362 -30.4181
18 1 -16.001 49.0944 -30.4628
19 1 -16.2463 49.4145 -29.5712
20 1 -16.941 49.1987 -28.9881
21 1 -17.1108 49.9055 -28.3383
22 1 -17.9566 50.3776 -28.1913
23 1 -18.0035 49.6511 -28.7777
24 1 -18.6222 49.2292 -29.3027
25 1 -19.3955 49.728 -29.5386
26 1 -18.908 49.8205 -30.3171
27 1 -18.5103 50.6006 -30.6302
28 1 -17.7441 51.1606 -30.3712
29 1 -17.192 50.4169 -30.4285
30 1 -16.4623 50.4025 -29.856
31 1 -15.9934 50.3472 -29.0003
32 1 -15.2333 50.1166 -29.5648
ITEM: TIMESTEP
2910000
ITEM: NUMBER OF ATOMS
32
ITEM: BOX BOUNDS mm mm mm
-1.6000000000000000e+01 1.6000000000000000e+01
-1.6000000000000000e+01 5.2587978852403246e+01
-2.8795272435764673e+01 1.6000000000000000e+01
ITEM: ATOMS id type x y z
1 1 -11.1678 46.2605 -18.9117
2 1 -10.9461 47.1548 -19.108
3 1 -10.4571 47.664 -19.6966
4 1 -10.2225 47.4007 -20.6312
5 1 -11.129 47.0703 -20.8223
6 1 -11.9454 47.2851 -21.2655
7 1 -12.3151 47.8868 -21.9458
8 1 -12.9182 48.6215 -22.0084
9 1 -13.7264 48.9086 -22.4192
10 1 -13.9355 49.7946 -22.792
11 1 -13.5934 50.1887 -23.5257
12 1 -13.8781 50.2041 -24.4116
13 1 -14.1963 50.0894 -25.3251
14 1 -13.8032 50.9188 -25.437
15 1 -14.3865 51.255 -26.1013
16 1 -14.4109 50.8948 -26.9802
17 1 -14.7823 51.5246 -27.5492
18 1 -14.0612 52.122 -27.3038
19 1 -13.5173 52.1513 -28.0972
20 1 -12.7548 51.7056 -28.0432
21 1 -12.1165 51.0123 -27.9573
22 1 -11.6879 50.185 -28.188
23 1 -10.7661 50.1035 -28.2533
24 1 -10.3397 50.6963 -28.8015
25 1 -9.65168 51.2915 -28.6332
26 1 -8.88536 51.6456 -28.1979
27 1 -8.55718 51.8318 -27.336
28 1 -9.09441 52.4559 -26.9516
29 1 -8.60634 52.4694 -26.0995
30 1 -8.57658 52.4252 -25.1387
31 1 -9.43048 52.2401 -24.7123
32 1 -9.84159 51.5259 -25.1034
ITEM: TIMESTEP
2920000
ITEM: NUMBER OF ATOMS
32
ITEM: BOX BOUNDS mm mm mm
-1.6000000000000000e+01 1.6000000000000000e+01
-1.6000000000000000e+01 5.3161806748256723e+01
-2.8854315514928697e+01 1.6000000000000000e+01
ITEM: ATOMS id type x y z
1 1 -10.7175 42.6926 -24.7565
2 1 -10.956 42.3355 -25.6034
3 1 -11.7771 42.6256 -25.9652
4 1 -11.9786 43.3364 -26.5376
5 1 -12.7182 43.7385 -26.0186
6 1 -13.6125 43.8877 -26.0619
7 1 -14.4173 44.1704 -26.5683
8 1 -15.1221 44.7844 -26.5297
9 1 -15.3692 45.3623 -25.9071
10 1 -15.1494 45.9106 -25.1694
11 1 -14.3016 46.2785 -25.1477
12 1 -13.5678 46.8432 -24.9347
13 1 -14.0073 47.6291 -24.6824
14 1 -13.6545 48.5459 -24.6657
15 1 -13.34 49.0719 -24.0346
16 1 -12.841 49.8177 -23.7788
17 1 -12.5104 50.374 -24.5071
18 1 -12.7313 51.2691 -24.4495
19 1 -12.6679 52.0429 -24.9761
20 1 -12.3697 52.5978 -25.6405
21 1 -12.4697 52.512 -26.6182
22 1 -12.8174 53.1656 -27.2347
23 1 -13.5419 52.803 -27.6991
24 1 -12.9296 52.3235 -28.3524
25 1 -12.9865 51.3988 -28.5648
26 1 -12.413 50.6997 -28.338
27 1 -11.9419 50.0622 -28.8404
28 1 -11.2354 49.4467 -28.6177
29 1 -10.3126 49.3828 -28.7345
30 1 -9.74588 48.6646 -28.581
31 1 -8.98485 48.1983 -28.7978
32 1 -9.05271 47.35 -28.3852
ITEM: TIMESTEP
2930000
ITEM: NUMBER OF ATOMS
32
ITEM: BOX BOUNDS mm mm mm
-1.6000000000000000e+01 1.6000000000000000e+01
-1.6000000000000000e+01 5.2642805876946632e+01
-3.5637873471411183e+01 1.6000000000000000e+01
ITEM: ATOMS id type x y z
1 1 -13.2167 47.7505 -23.6788
2 1 -13.744 47.6599 -24.4773
3 1 -13.6261 47.9971 -25.3207
4 1 -14.3837 48.4304 -25.1465
5 1 -14.2745 49.3409 -25.3366
6 1 -13.7671 49.7116 -26.0392
7 1 -13.2829 49.5073 -25.2543
8 1 -12.7524 49.8159 -24.4993
9 1 -12.0507 49.2774 -24.8061
10 1 -11.2143 48.9642 -25.1346
11 1 -10.3159 48.6053 -25.1913
12 1 -9.38646 48.7527 -25.2709
13 1 -9.61831 49.1599 -26.0571
14 1 -10.2739 49.6377 -26.528
15 1 -10.0941 50.0502 -27.2982
16 1 -10.5906 50.6712 -27.8397
17 1 -10.728 50.7769 -28.7906
18 1 -10.9801 50.7639 -29.6789
19 1 -11.5537 51.5231 -29.7838
20 1 -11.0544 52.1454 -30.3542
21 1 -10.9083 52.4023 -31.2124
22 1 -11.0376 51.6161 -31.8025
23 1 -11.811 52.1957 -31.7471
24 1 -12.199 53.0477 -32.0418
25 1 -13.029 52.8237 -32.4793
26 1 -13.4444 52.1728 -33.0655
27 1 -13.6874 51.6396 -33.7524
28 1 -13.8543 50.9075 -34.481
29 1 -13.1279 51.3937 -34.718
30 1 -12.3215 51.0459 -35.0971
31 1 -12.4706 50.5534 -35.8797
32 1 -12.2935 49.6458 -35.9932
ITEM: TIMESTEP
2940000
ITEM: NUMBER OF ATOMS
32
ITEM: BOX BOUNDS mm mm mm
-1.6000000000000000e+01 1.6000000000000000e+01
-1.6000000000000000e+01 5.2373804340146037e+01
-3.2548357119125058e+01 1.6000000000000000e+01
ITEM: ATOMS id type x y z
1 1 -8.81779 46.3643 -28.9006
2 1 -9.61317 46.8971 -28.9011
3 1 -10.0755 47.5345 -29.5085
4 1 -10.1223 48.4639 -29.8115
5 1 -9.97718 48.5564 -30.7413
6 1 -10.3257 49.4582 -30.7996
7 1 -11.1941 49.7574 -30.9619
8 1 -10.7812 49.4183 -31.7372
9 1 -10.5112 49.9403 -32.4425
10 1 -9.69279 49.4474 -32.3872
11 1 -9.40909 50.0863 -31.7699
12 1 -9.15671 50.3898 -30.881
13 1 -9.05335 50.8616 -30.0981
14 1 -9.94093 51.2354 -29.9224
15 1 -10.4318 51.967 -29.6594
16 1 -10.2974 52.3179 -30.5297
17 1 -10.9 51.7628 -31.0677
18 1 -11.0633 51.0687 -30.4991
19 1 -11.689 50.6732 -29.9653
20 1 -12.2503 49.9285 -29.992
21 1 -11.8559 50.1227 -29.1467