ITEM: TIMESTEP
2180000
ITEM: NUMBER OF ATOMS
32
ITEM: BOX BOUNDS mm mm mm
-1.6000000000000000e+01 1.6000000000000000e+01
-1.6000000000000000e+01 3.7499718761296428e+01
-2.9398177187142753e+01 1.6000000000000000e+01
ITEM: ATOMS id type x y z
1 1 -14.2122 35.8314 -25.5689
2 1 -14.3845 35.1404 -26.1313
3 1 -13.5199 35.1383 -25.842
4 1 -12.613 35.3401 -25.7518
5 1 -11.8222 35.2734 -26.2295
6 1 -11.4554 34.6755 -25.5117
7 1 -11.4173 34.8811 -24.6291
8 1 -10.6631 35.4351 -24.9124
9 1 -10.2752 36.249 -24.7727
10 1 -10.0338 37.0926 -25.1012
11 1 -9.52399 37.2939 -24.3302
12 1 -8.94866 36.5617 -24.1391
13 1 -8.88883 36.2325 -23.2396
14 1 -8.55924 35.3036 -23.2625
15 1 -7.84305 35.6138 -22.7232
16 1 -6.95752 35.8601 -22.4424
17 1 -6.14081 36.1367 -22.1499
18 1 -5.22347 35.9849 -22.1715
19 1 -4.56731 36.0008 -22.8522
20 1 -4.63201 36.5045 -23.6188
21 1 -3.75343 36.486 -24.0035
22 1 -3.73269 35.7907 -24.6235
23 1 -4.11723 36.2549 -25.3294
24 1 -3.37843 36.7395 -25.5988
25 1 -2.87634 36.7675 -26.3664
26 1 -2.29611 37.4944 -26.0781
27 1 -2.21883 37.4521 -27.0027
28 1 -2.06609 36.7718 -27.6076
29 1 -2.30114 36.3866 -28.4576
30 1 -2.13113 36.4996 -29.3936
31 1 -1.56218 35.7865 -29.3913
32 1 -1.80918 34.9317 -29.0315
ITEM: TIMESTEP
2190000
ITEM: NUMBER OF ATOMS
32
ITEM: BOX BOUNDS mm mm mm
-1.6000000000000000e+01 1.6000000000000000e+01
-1.6000000000000000e+01 3.3897747295670783e+01
-3.2837043685841842e+01 1.6000000000000000e+01
ITEM: ATOMS id type x y z
1 1 -8.90055 28.7891 -30.7718
2 1 -8.97579 28.3204 -31.6439
3 1 -8.11586 28.0646 -31.2695
4 1 -7.58802 28.7007 -30.8909
5 1 -8.01767 28.8945 -30.1325
6 1 -7.27552 29.3802 -30.0055
7 1 -6.31145 29.4489 -30.0782
8 1 -6.04398 29.2765 -29.2011
9 1 -5.59751 30.0457 -29.1633
10 1 -5.84455 30.7513 -28.6432
11 1 -6.10985 31.6417 -28.5979
12 1 -5.61107 32.4395 -28.6196
13 1 -5.88957 32.3267 -29.4596
14 1 -5.65726 31.624 -29.9754
15 1 -5.37417 32.4264 -30.4672
16 1 -4.65832 32.9529 -30.6838
17 1 -3.9536 33.4349 -31.1926
18 1 -3.03216 33.3468 -31.438
19 1 -2.10935 33.5007 -31.6468
20 1 -1.79817 32.7648 -32.0952
21 1 -1.13329 32.5232 -32.7398
22 1 -1.05379 31.7113 -32.3062
23 1 -0.30222 32.1241 -32.0984
24 1 -0.018534 32.733 -31.4867
25 1 0.192744 32.2427 -30.7292
26 1 0.328054 33.1478 -30.4677
27 1 -0.299384 33.7864 -30.3963
28 1 -0.193725 33.632 -29.4417
29 1 0.132687 33.7472 -28.5718
30 1 -0.745913 33.7479 -28.3401
31 1 -0.455878 32.8563 -28.4565
32 1 -0.972349 32.7415 -29.2685
ITEM: TIMESTEP
2200000
ITEM: NUMBER OF ATOMS
32
ITEM: BOX BOUNDS mm mm mm
-1.6000000000000000e+01 1.6000000000000000e+01
-1.6000000000000000e+01 3.5724040396809698e+01
-3.2734472753511398e+01 1.6000000000000000e+01
ITEM: ATOMS id type x y z
1 1 -7.29494 35.595 -30.5001
2 1 -6.31562 35.5805 -30.3309
3 1 -5.58155 35.3514 -30.9026
4 1 -5.39847 34.9872 -31.7216
5 1 -5.14712 34.2551 -32.2673
6 1 -4.24822 34.1816 -32.5114
7 1 -3.34399 34.2198 -32.8006
8 1 -3.06806 34.1845 -31.9034
9 1 -3.1349 34.9764 -31.4788
10 1 -2.61338 35.3501 -32.2315
11 1 -1.88578 35.4476 -31.6281
12 1 -1.37036 34.6372 -31.5437
13 1 -0.591874 34.2232 -31.2679
14 1 -0.283441 33.7562 -30.4849
15 1 -1.19727 33.6415 -30.242
16 1 -1.92261 33.4689 -29.6809
17 1 -2.18472 32.6275 -29.9984
18 1 -2.89927 33.2505 -30.075
19 1 -3.22669 34.1025 -30.3229
20 1 -3.33942 35.0451 -30.1242
21 1 -3.27707 35.6351 -29.3272
22 1 -3.00408 34.8095 -28.8803
23 1 -3.00956 34.6399 -27.9439
24 1 -2.49279 33.8775 -28.0666
25 1 -2.64171 33.0326 -27.7184
26 1 -3.46533 32.9647 -28.2289
27 1 -4.33171 32.6733 -28.3051
28 1 -4.51622 32.4995 -27.3994
29 1 -4.55256 31.7944 -26.7776
30 1 -4.81183 31.118 -26.153
31 1 -4.70021 30.1869 -25.7657
32 1 -4.33454 29.3806 -25.3156
ITEM: TIMESTEP
2210000
ITEM: NUMBER OF ATOMS
32
ITEM: BOX BOUNDS mm mm mm
-1.6000000000000000e+01 1.6000000000000000e+01
-1.6000000000000000e+01 3.7594938095088501e+01
-3.6336123014472264e+01 1.6000000000000000e+01
ITEM: ATOMS id type x y z
1 1 -7.13249 29.5381 -35.2201
2 1 -6.98546 29.8225 -36.0985
3 1 -6.38229 30.5081 -36.0026
4 1 -5.71182 31.1079 -36.3315
5 1 -5.52027 31.937 -35.9968
6 1 -5.80013 32.6862 -35.5105
7 1 -5.77318 32.4084 -34.6245
8 1 -4.96382 32.8359 -34.3139
9 1 -5.6671 33.3387 -33.9128
10 1 -6.22272 34.0827 -33.6498
11 1 -6.85958 33.6747 -34.1613
12 1 -6.98256 34.3742 -34.796
13 1 -7.48384 35.16 -34.3729
14 1 -8.25418 34.7098 -34.0995
15 1 -7.92476 34.1054 -33.4315
16 1 -8.43351 33.845 -32.6577
17 1 -8.15711 34.1288 -31.8027
18 1 -8.92983 34.4968 -31.4541
19 1 -8.50337 34.3103 -30.6586
20 1 -9.16238 33.6234 -30.6344
21 1 -9.12458 33.6659 -29.7183
22 1 -8.73895 34.3903 -29.2647
23 1 -9.56781 34.665 -28.9251
24 1 -8.98525 35.4325 -28.7739
25 1 -8.56785 36.2957 -28.7401
26 1 -9.47842 36.356 -28.4382
27 1 -10.2307 36.9059 -28.3555
28 1 -9.84309 37.0077 -27.5243
29 1 -9.463 37.0736 -26.6693
30 1 -8.74143 36.6919 -26.2236
31 1 -8.18001 37.4017 -26.3555
32 1 -8.12311 37.1667 -27.2892
ITEM: TIMESTEP
2220000
ITEM: NUMBER OF ATOMS
32
ITEM: BOX BOUNDS mm mm mm
-1.6000000000000000e+01 1.6000000000000000e+01
-1.6000000000000000e+01 3.9405211515222447e+01
-3.7857231994378481e+01 1.6000000000000000e+01
ITEM: ATOMS id type x y z
1 1 -11.1133 34.2128 -36.1515
2 1 -11.7434 34.3933 -36.8443
3 1 -11.2189 33.7991 -37.3777
4 1 -10.7874 32.9439 -37.3533
5 1 -11.5312 32.5691 -37.8475
6 1 -11.0912 31.8187 -37.4709
7 1 -10.3416 31.5807 -36.9341
8 1 -9.75732 31.5505 -36.2267
9 1 -9.849 32.4521 -35.9991
10 1 -10.3404 33.0892 -35.5145
11 1 -10.0733 33.9321 -35.2499
12 1 -9.46582 34.4619 -34.8203
13 1 -9.43918 35.307 -34.3715
14 1 -9.66387 35.7549 -33.5379
15 1 -10.1119 35.1355 -32.9728
16 1 -10.9805 34.9528 -33.3272
17 1 -11.5045 34.8351 -34.0606
18 1 -11.0903 34.0064 -34.031
19 1 -11.9128 33.8771 -33.6388
20 1 -11.5785 33.6386 -32.7392
21 1 -10.9773 34.3722 -32.4111
22 1 -11.4423 34.8 -31.7339
23 1 -11.2814 34.8673 -30.7806
24 1 -11.1334 35.5122 -30.0745
25 1 -10.6111 36.0117 -30.6615
26 1 -11.1813 36.6241 -31.0988
27 1 -11.6249 36.1994 -31.7755
28 1 -12.0899 36.771 -32.3946
29 1 -12.6341 37.477 -32.7903
30 1 -12.4885 38.2596 -33.1985
31 1 -12.7774 38.4891 -34.0585
32 1 -12.583 39.2984 -34.5771
ITEM: TIMESTEP
2230000
ITEM: NUMBER OF ATOMS
32
ITEM: BOX BOUNDS mm mm mm
-1.6000000000000000e+01 1.6000000000000000e+01
-1.6000000000000000e+01 4.1039201503129981e+01
-3.8478596710358403e+01 1.6000000000000000e+01
ITEM: ATOMS id type x y z
1 1 -9.39295 38.4724 -38.5351
2 1 -9.4617 38.6942 -37.5999
3 1 -10.2738 39.1258 -37.5021
4 1 -10.8829 38.7197 -36.8318
5 1 -11.5768 39.2221 -36.3934
6 1 -11.146 39.0843 -35.5657
7 1 -11.3033 39.378 -34.7173
8 1 -11.1185 39.3774 -33.7663
9 1 -11.1306 40.1989 -33.4169
10 1 -11.2816 40.8354 -32.76
11 1 -11.4499 40.3145 -31.9879
12 1 -11.5271 40.2132 -31.0573
13 1 -10.971 40.8402 -30.7117
14 1 -10.8644 40.472 -29.8753
15 1 -10.6861 39.9542 -29.0762
16 1 -10.7482 39.1212 -29.5158
17 1 -10.0499 39.6296 -29.8557
18 1 -10.6649 39.6216 -30.5495
19 1 -9.9331 39.0406 -30.7505
20 1 -10.5026 38.4029 -30.2229
21 1 -10.2723 37.5158 -29.8292
22 1 -9.60804 37.0849 -30.3172
23 1 -8.77951 37.4715 -30.1408
24 1 -8.20003 36.9962 -30.8139
25 1 -7.91943 36.7337 -31.6353
26 1 -7.69742 36.2632 -32.407
27 1 -8.58448 35.9212 -32.5323
28 1 -8.96679 35.2939 -31.9929
29 1 -9.74339 35.632 -31.6919
30 1 -10.3205 35.6035 -30.9659
31 1 -10.356 36.461 -31.3201
32 1 -11.1966 36.0684 -31.3541
ITEM: TIMESTEP
2240000
ITEM: NUMBER OF ATOMS
32
ITEM: BOX BOUNDS mm mm mm
-1.6000000000000000e+01 1.6000000000000000e+01
-1.6000000000000000e+01 4.5404383942963236e+01
-3.4242248674654597e+01 1.6000000000000000e+01
ITEM: ATOMS id type x y z
1 1 -13.1501 44.2527 -26.4494
2 1 -12.5587 44.3415 -27.1611
3 1 -12.3013 44.8053 -27.9298
4 1 -11.384 44.896 -28.1487
5 1 -10.9566 45.2781 -28.8017
6 1 -11.862 45.1456 -29.1689
7 1 -11.4817 44.3588 -29.6715
8 1 -10.9796 43.6043 -29.4908
9 1 -10.3222 42.9713 -29.9376
10 1 -9.70494 42.2402 -30.2381
11 1 -8.86386 41.8021 -30.1781
12 1 -8.01944 41.9059 -29.7806
13 1 -7.16909 42.2659 -29.6212
14 1 -7.62304 42.7395 -30.4153
15 1 -7.49593 43.6843 -30.4742
16 1 -6.70628 44.2878 -30.2858
17 1 -5.83913 44.0355 -30.2319
18 1 -5.79546 43.0978 -30.4594
19 1 -5.33507 42.3531 -30.2154
20 1 -6.10707 41.9836 -30.6278
21 1 -6.19683 41.2937 -31.3371
22 1 -7.02395 41.2907 -31.7913
23 1 -7.24847 41.2092 -32.7345
24 1 -7.17533 40.2697 -32.8573
25 1 -7.61665 40.4868 -33.6498
26 1 -7.46258 39.6777 -34.0722
27 1 -7.21498 38.804 -33.8075
28 1 -7.7737 38.1666 -34.2044
29 1 -8.6475 38.5433 -34.0546
30 1 -9.58177 38.6351 -33.8437
31 1 -10.2992 39.2778 -33.7491
32 1 -10.1141 39.8738 -34.4964
ITEM: TIMESTEP
2250000
ITEM: NUMBER OF ATOMS
32
ITEM: BOX BOUNDS mm mm mm
-1.6000000000000000e+01 1.6000000000000000e+01
-1.6000000000000000e+01 4.8280304048978195e+01
-3.3579126258695396e+01 1.6000000000000000e+01
ITEM: ATOMS id type x y z
1 1 -3.15965 42.6888 -27.9252
2 1 -3.73943 41.9603 -27.7228
3 1 -4.19219 42.3515 -28.3916
4 1 -4.85606 42.091 -27.7861
5 1 -5.44082 42.8085 -27.683
6 1 -6.26404 42.3414 -27.5754
7 1 -6.98887 42.9038 -27.3815
8 1 -7.57312 43.7185 -27.4589
9 1 -7.45091 43.9757 -28.3231
10 1 -6.84317 43.4224 -28.8036
11 1 -7.1885 43.9232 -29.5151
12 1 -6.9346 44.7646 -29.8753
13 1 -6.66193 45.6796 -29.9627
14 1 -5.77208 45.4323 -30.2261
15 1 -6.13018 45.0555 -31.053
16 1 -6.47498 44.6825 -31.7709
17 1 -7.21693 44.751 -32.3154
18 1 -7.98956 45.1798 -32.665
19 1 -8.68858 45.5652 -32.1999
20 1 -9.36154 45.0527 -31.7748
21 1 -10.0984 44.7035 -32.1405
22 1 -10.8087 44.2256 -32.5342
23 1 -10.7031 44.3676 -33.4414
24 1 -11.3483 45.0856 -33.5795
25 1 -11.065 45.9273 -33.288
26 1 -10.9189 46.5797 -32.6468
27 1 -10.227 47.2455 -32.5294
28 1 -10.5587 47.9208 -32.0139
29 1 -11.2383 48.5292 -31.9592
30 1 -11.791 47.9973 -31.4012
31 1 -12.1564 47.6013 -30.6899
32 1 -11.8928 46.8618 -31.197
ITEM: TIMESTEP
2260000
ITEM: NUMBER OF ATOMS
32
ITEM: BOX BOUNDS mm mm mm
-1.6000000000000000e+01 1.6000000000000000e+01
-1.6000000000000000e+01 5.0658452403868978e+01
-3.0885225596887018e+01 1.6000000000000000e+01
ITEM: ATOMS id type x y z
1 1 -8.38194 47.263 -30.0828
2 1 -8.71755 46.9918 -30.9365
3 1 -9.42683 47.4795 -30.5245
4 1 -9.84902 47.4066 -29.6318
5 1 -10.2037 46.8568 -28.9706
6 1 -10.1965 46.579 -28.0428
7 1 -10.9448 46.8471 -27.6176
8 1 -11.0946 46.1317 -27.1215
9 1 -11.2881 45.2303 -27.2821
10 1 -11.5636 44.3357 -27.5664
11 1 -11.8351 44.652 -26.7224
12 1 -11.5464 43.8378 -26.2316
13 1 -12.3776 43.8151 -25.6826
14 1 -12.4506 44.7382 -25.3509
15 1 -12.2394 45.3838 -24.7374
16 1 -11.525 45.5077 -24.1118
17 1 -11.4375 45.8265 -23.2388
18 1 -12.1809 45.2875 -23.0728
19 1 -11.5911 44.7486 -22.4795
20 1 -10.8493 45.0035 -22.0452
21 1 -10.006 44.6075 -21.9917
22 1 -9.88091 44.8064 -22.9253
23 1 -9.64459 45.134 -23.7715
24 1 -9.8161 45.0141 -24.7237
25 1 -10.4952 45.6202 -24.5971
26 1 -10.693 46.3511 -25.1642
27 1 -10.1851 46.8855 -25.7848
28 1 -10.2532 47.8018 -25.5128
29 1 -9.59143 48.5236 -25.6653
30 1 -10.2758 49.1228 -25.3219
31 1 -10.1682 49.7699 -24.611
32 1 -10.3464 50.6681 -24.3222
ITEM: TIMESTEP
2270000
ITEM: NUMBER OF ATOMS
32
ITEM: BOX BOUNDS mm mm mm
-1.6000000000000000e+01 1.6000000000000000e+01
-1.6000000000000000e+01 5.1253263949263768e+01
-3.3739707738342162e+01 1.6000000000000000e+01
ITEM: ATOMS id type x y z
1 1 -10.0316 51.2993 -24.9226
2 1 -9.49455 50.7782 -24.2921
3 1 -10.0501 50.015 -24.2519
4 1 -10.7812 50.0026 -23.6386
5 1 -11.3596 49.261 -23.4976
6 1 -11.5312 49.7394 -22.7004
7 1 -10.7086 49.3342 -22.4872
8 1 -10.3496 48.6706 -23.0346
9 1 -10.2336 47.8439 -23.3848
10 1 -9.31085 47.7 -23.3656
11 1 -8.51777 47.2413 -23.428
12 1 -8.13911 47.5224 -24.2275
13 1 -8.06156 48.2784 -24.7423
14 1 -8.98758 48.2455 -24.5325
15 1 -8.91672 49.005 -25.0808
16 1 -8.60054 49.8325 -25.4218
17 1 -7.85106 50.0819 -25.9442
18 1 -8.14068 49.2517 -26.2348
19 1 -8.56138 49.584 -26.9807
20 1 -8.0012 49.3348 -27.694
21 1 -8.26332 49.8507 -28.3999
22 1 -8.08257 50.1618 -29.2978
23 1 -8.25359 50.9596 -29.7709
24 1 -9.06709 50.5548 -29.8593
25 1 -9.75704 50.535 -30.531
26 1 -9.38813 50.4534 -31.3695
27 1 -9.90019 49.7802 -31.7338
28 1 -10.7389 49.502 -31.9417
29 1 -11.6969 49.269 -31.7282
30 1 -12.0973 49.5012 -32.5433
31 1 -11.4979 50.0346 -33.0297
32 1 -10.8897 49.6515 -33.6174
ITEM: TIMESTEP
2280000
ITEM: NUMBER OF ATOMS
32
ITEM: BOX BOUNDS mm mm mm
-1.6000000000000000e+01 1.6000000000000000e+01
-1.6000000000000000e+01 5.2060719478882106e+01
-2.9258805754780820e+01 1.6000000000000000e+01
ITEM: ATOMS id type x y z
1 1 -3.49987 42.0842 -26.0424
2 1 -4.12168 41.3593 -25.7382
3 1 -4.94145 41.1716 -25.2796
4 1 -4.86692 41.9784 -24.7517
5 1 -4.03306 42.2821 -25.0841
6 1 -3.59705 43.1398 -25.1395
7 1 -4.34558 43.3791 -25.6652
8 1 -4.95873 44.0544 -25.7817
9 1 -5.49561 44.2448 -26.5994
10 1 -6.27127 44.383 -27.0658
11 1 -6.61667 44.2841 -27.9455
12 1 -6.15835 44.3728 -28.7606
13 1 -6.5584 45.1448 -29.1944
14 1 -7.09315 45.1537 -28.441
15 1 -7.89503 44.7316 -28.7851
16 1 -8.35306 45.4044 -28.2807
17 1 -7.97449 46.2111 -27.8179
18 1 -8.76465 46.5849 -27.4803
19 1 -8.71207 47.4857 -27.8643
20 1 -9.24883 48.0562 -27.2982
21 1 -9.87302 48.3139 -26.7055
22 1 -10.7805 48.0371 -26.9517
23 1 -11.4036 48.7396 -26.8651
24 1 -12.1954 48.2027 -26.7819
25 1 -12.6253 48.9001 -27.225
26 1 -12.3813 49.6231 -27.775
27 1 -11.8022 50.1288 -28.3913
28 1 -11.0574 50.3253 -27.846
29 1 -10.5199 50.957 -27.3287
30 1 -10.5063 51.7745 -26.8419
31 1 -9.97344 52.0164 -26.1124
32 1 -10.1786 51.3746 -25.5184
ITEM: TIMESTEP
2290000
ITEM: NUMBER OF ATOMS
32
ITEM: BOX BOUNDS mm mm mm
-1.6000000000000000e+01 1.6000000000000000e+01
-1.6000000000000000e+01 5.7569271322376956e+01
-3.2777978341072277e+01 1.6000000000000000e+01
ITEM: ATOMS id type x y z
1 1 -10.1115 50.0674 -25.7198
2 1 -9.21609 49.8209 -25.4689
3 1 -9.24653 48.945 -25.1097
4 1 -9.22295 48.579 -24.1896
5 1 -9.10366 47.6337 -24.3943
6 1 -10.0354 47.5404 -24.6157
7 1 -10.0716 47.1664 -25.4662
8 1 -10.7862 47.6455 -25.7465
9 1 -11.6178 47.8698 -26.1877
10 1 -11.723 48.3226 -27.0715
11 1 -10.8769 48.5193 -26.6609
12 1 -10.8336 49.0571 -27.4397
13 1 -11.6517 48.9227 -27.9243
14 1 -11.4652 49.1297 -28.78
15 1 -10.8862 48.4509 -28.9664
16 1 -10.0298 48.9729 -28.8874
17 1 -10.0372 49.8278 -29.2122
18 1 -10.1032 50.712 -29.4659
19 1 -10.3528 51.592 -29.1979
20 1 -9.87866 52.4562 -29.0675
21 1 -10.1477 52.9019 -29.8754
22 1 -10.8412 53.2155 -30.5114
23 1 -10.1584 53.8659 -30.4088
24 1 -10.9548 54.1305 -30.8758
25 1 -10.5173 53.4421 -31.4494
26 1 -9.68192 53.7199 -31.9478
27 1 -9.13847 54.3794 -32.3151
28 1 -9.63151 55.2043 -32.4447
29 1 -9.46346 56.0135 -31.919
30 1 -10.1812 56.6322 -32.0162
31 1 -9.82532 57.3947 -32.2759
32 1 -10.7483 57.4966 -32.4653
ITEM: TIMESTEP
2300000
ITEM: NUMBER OF ATOMS
32
ITEM: BOX BOUNDS mm mm mm
-1.7960370051258643e+01 1.6000000000000000e+01
-1.6000000000000000e+01 5.3044443903033233e+01
-3.3176872435621185e+01 1.6000000000000000e+01
ITEM: ATOMS id type x y z
1 1 -7.63738 50.9946 -27.749
2 1 -8.10696 51.6936 -28.2454
3 1 -8.68399 52.4819 -28.0306
4 1 -9.57572 52.2137 -27.8943
5 1 -9.32905 52.8157 -27.2456
6 1 -9.69025 52.2845 -26.5172
7 1 -10.4221 51.7245 -26.5951
8 1 -11.2018 51.317 -26.8934
9 1 -11.3331 50.551 -27.3815
10 1 -11.5099 49.888 -26.7234
11 1 -11.9409 49.2754 -27.3262
12 1 -12.8146 49.5138 -27.5332
13 1 -13.703 49.2471 -27.7211
14 1 -13.6648 50.1199 -28.0136
15 1 -13.8038 50.0162 -28.953
16 1 -13.0344 50.5372 -29.1605
17 1 -12.5528 50.8236 -28.3985
18 1 -12.2969 51.3449 -29.1602
19 1 -12.1023 52.0112 -28.6077
20 1 -12.9737 51.7791 -28.318
21 1 -13.5985 51.5132 -28.9272
22 1 -14.3552 51.7882 -29.3865
23 1 -14.6052 51.2205 -30.0765
24 1 -15.5272 51.2121 -30.3016
25 1 -15.5994 50.4263 -30.8375
26 1 -15.7599 51.0151 -31.57
27 1 -15.5892 51.3743 -32.4654
28 1 -16.4971 51.4661 -32.4972
29 1 -16.5865 52.338 -32.7925
30 1 -17.0826 52.4046 -33.5119
31 1 -17.4379 53.2249 -33.2329
32 1 -18.0512 52.9697 -32.6353
ITEM: TIMESTEP
2310000
ITEM: NUMBER OF ATOMS
32
ITEM: BOX BOUNDS mm mm mm
-1.6000000000000000e+01 1.6000000000000000e+01
-1.6000000000000000e+01 5.2522828706254835e+01
-2.9851083942600365e+01 1.6000000000000000e+01
ITEM: ATOMS id type x y z
1 1 -14.6784 51.0116 -26.9546
2 1 -14.0932 50.3735 -27.2635
3 1 -13.1741 50.4148 -27.1961
4 1 -12.4014 50.6329 -26.6611
5 1 -12.2362 51.376 -27.1748
6 1 -11.5467 51.9929 -27.0494
7 1 -10.6865 51.6568 -27.3387
8 1 -9.92409 51.1715 -27.0731
9 1 -9.35081 51.6123 -26.471
10 1 -9.65748 52.4842 -26.3095
11 1 -10.4874 51.9107 -26.2514
12 1 -10.8974 51.0315 -26.3964
13 1 -10.72 50.1704 -26.0121
14 1 -11.5369 50.322 -25.6023
15 1 -11.801 51.2089 -25.4794
16 1 -12.3794 51.7128 -24.894
17 1 -13.1905 51.8313 -24.3971
18 1 -13.3582 52.4364 -25.1263
19 1 -13.3178 52.209 -25.9999
20 1 -14.147 52.1065 -26.5012
21 1 -13.6612 52.1031 -27.3351
22 1 -13.823 51.7998 -28.2401
23 1 -13.4124 50.9142 -28.51
24 1 -12.5893 50.7515 -28.1501
25 1 -11.5763 50.8662 -28.2636
26 1 -10.5832 50.6836 -28.3381
27 1 -10.5354 49.7666 -28.0832
28 1 -10.2982 48.8786 -27.7793
29 1 -10.5909 48.0569 -28.1259
30 1 -10.8343 48.1519 -29.0539
31 1 -11.6697 48.0087 -29.4605
32 1 -12.0215 47.2179 -29.84
ITEM: TIMESTEP
2320000
ITEM: NUMBER OF ATOMS
32
ITEM: BOX BOUNDS mm mm mm
-1.6000000000000000e+01 1.6000000000000000e+01
-1.6000000000000000e+01 5.2436673262356194e+01
-3.4066729711392483e+01 1.6000000000000000e+01
ITEM: ATOMS id type x y z
1 1 -10.5177 49.1475 -24.5343
2 1 -9.57607 49.0918 -24.6165
3 1 -9.05741 48.3949 -24.9706
4 1 -9.69756 48.3062 -25.6675
5 1 -10.3025 48.1429 -26.3276
6 1 -11.1206 48.1424 -26.8499
7 1 -11.247 48.418 -27.7828
8 1 -10.5012 48.9653 -27.808
9 1 -10.1852 49.8581 -27.8425
10 1 -9.27729 50.0538 -27.9264
11 1 -8.50381 49.7009 -27.4527
12 1 -7.70879 50.1633 -27.056
13 1 -7.47742 50.9728 -27.4551
14 1 -7.01745 50.5212 -28.1731
15 1 -7.67905 50.9462 -28.7175
16 1 -7.82591 51.8874 -28.9053
17 1 -8.45395 51.8901 -29.6242
18 1 -9.02981 52.1901 -30.2857
19 1 -9.9301 52.1208 -30.6041
20 1 -10.4743 52.3925 -31.3527
21 1 -10.3553 51.5777 -31.8764
22 1 -9.97009 51.1389 -32.6202
23 1 -10.4852 50.4085 -32.7939
24 1 -10.779 49.6573 -32.3452
25 1 -11.5621 50.0136 -32.6518
26 1 -11.5781 49.1181 -32.8321
27 1 -11.9768 48.2898 -32.9252
28 1 -12.5156 47.8625 -33.6105
29 1 -13.018 48.6736 -33.4393
30 1 -13.8821 49.1515 -33.3248
31 1 -14.3614 49.0706 -34.1306
32 1 -14.6088 48.1619 -34.4228
ITEM: TIMESTEP
2330000
ITEM: NUMBER OF ATOMS
32
ITEM: BOX BOUNDS mm mm mm
-1.6000000000000000e+01 1.6000000000000000e+01
-1.6000000000000000e+01 5.4747005196036511e+01
-3.4235323863450738e+01 1.6000000000000000e+01
ITEM: ATOMS id type x y z
1 1 -13.7703 46.9723 -27.3406
2 1 -12.9425 46.7212 -26.9916
3 1 -12.7305 46.3862 -26.0754
4 1 -12.3375 46.848 -25.3548
5 1 -12.373 47.8247 -25.2382
6 1 -11.5009 48.0313 -25.6184
7 1 -10.647 48.2431 -25.9652
8 1 -9.74307 48.3253 -26.1927
9 1 -9.38603 49.0163 -26.8082
10 1 -10.2745 49.3237 -27.0017
11 1 -10.8959 48.9689 -27.5674
12 1 -10.1499 48.5867 -27.9522
13 1 -9.23248 48.4927 -27.8541
14 1 -8.74964 48.0782 -28.6247
15 1 -8.44436 48.9294 -28.606
16 1 -8.34278 49.7768 -28.2548
17 1 -9.13218 50.2273 -27.8727
18 1 -8.90865 51.1376 -28.1086
19 1 -8.45212 51.0016 -28.9129
20 1 -7.70304 51.2913 -29.359
21 1 -6.85778 51.7609 -29.6322
22 1 -6.10362 52.0661 -30.1392
23 1 -5.6657 51.5509 -30.7313
24 1 -5.67833 52.1875 -31.4669
25 1 -6.38379 52.1675 -32.079
26 1 -6.816 52.9785 -32.2581
27 1 -7.74146 52.9049 -31.9108
28 1 -8.23533 53.6739 -31.554
29 1 -8.78903 54.2847 -32.0999
30 1 -9.11624 54.79 -32.8485
31 1 -9.83911 54.3525 -33.3117
32 1 -10.1218 54.9957 -33.9632
ITEM: TIMESTEP
2340000
ITEM: NUMBER OF ATOMS
32
ITEM: BOX BOUNDS mm mm mm
-1.6000000000000000e+01 1.6000000000000000e+01
-1.6000000000000000e+01 5.0329692925200725e+01
-3.4539548322533108e+01 1.6000000000000000e+01
ITEM: ATOMS id type x y z
1 1 -3.91386 48.3092 -26.8702
2 1 -3.58072 47.4698 -27.0733
3 1 -3.35653 47.6384 -27.9418
4 1 -3.33166 46.6776 -28.0373
5 1 -2.62075 47.0254 -28.5246
6 1 -2.20362 47.8903 -28.4055
7 1 -1.71362 47.4941 -29.1389
8 1 -2.03581 47.7668 -29.9838
9 1 -1.13731 47.7233 -30.1486
10 1 -1.31834 47.0876 -30.7813
11 1 -1.36827 46.3244 -30.2334
12 1 -2.22628 46.6734 -30.2696
13 1 -2.9597 46.9796 -30.7819
14 1 -3.80393 47.0217 -30.3748
15 1 -4.24846 46.864 -29.592
16 1 -5.01067 46.7369 -30.1636
17 1 -5.62362 46.0251 -29.8863
18 1 -6.36548 46.0868 -29.3466
19 1 -7.37493 46.2181 -29.4104
20 1 -7.9512 46.857 -29.8942
21 1 -8.00782 47.7736 -30.0372
22 1 -7.48211 47.9181 -30.8801
23 1 -7.27864 48.8174 -31.0455
24 1 -6.92201 49.5455 -31.5766
25 1 -6.71657 49.6473 -32.4707
26 1 -5.99826 50.2432 -32.6918
27 1 -5.49592 49.4939 -33.0409
28 1 -5.82707 49.6257 -33.8994
29 1 -5.79403 48.8801 -34.4583
30 1 -5.18005 48.1458 -34.4085
31 1 -5.06808 48.5803 -33.5899
32 1 -5.80213 48.0793 -33.1662
ITEM: TIMESTEP
2350000
ITEM: NUMBER OF ATOMS
32
ITEM: BOX BOUNDS mm mm mm
-1.6000000000000000e+01 1.6000000000000000e+01
-1.6000000000000000e+01 4.8109403151501539e+01
-3.2621432729572724e+01 1.6000000000000000e+01
ITEM: ATOMS id type x y z
1 1 1.16326 40.363 -26.7862
2 1 0.708262 40.683 -27.5211
3 1 0.140589 40.5973 -26.7728
4 1 -0.292533 41.3406 -26.4792
5 1 -0.984722 41.1952 -27.0234
6 1 -1.25528 40.5841 -27.7199
7 1 -1.85994 41.2031 -28.055
8 1 -2.72506 41.0277 -28.3729
9 1 -3.18134 41.6998 -28.8912
10 1 -3.39559 40.8355 -29.2165
11 1 -4.20901 41.2594 -28.9093
12 1 -5.08288 41.0183 -29.1122
13 1 -4.67231 41.5624 -29.7839
14 1 -4.24942 42.3213 -30.1003
15 1 -4.9959 42.7635 -29.6468
16 1 -5.11435 43.6811 -29.7305
17 1 -5.95505 44.0384 -29.4414
18 1 -6.55408 43.6056 -30.0635
19 1 -6.01421 43.9626 -30.8354
20 1 -5.72574 43.7297 -31.7045
21 1 -5.94364 44.251 -32.4836
22 1 -6.38535 45.0203 -32.1759
23 1 -5.66961 45.6317 -32.0951
24 1 -5.19873 46.3785 -31.9715
25 1 -5.11316 45.8428 -31.2229
26 1 -4.44642 46.3016 -30.708
27 1 -3.6194 45.8308 -30.6068
28 1 -2.84616 46.0566 -30.1833
29 1 -2.89074 46.9724 -30.0476
30 1 -1.971 47.0295 -30.0121
31 1 -2.04579 47.9798 -29.9787
32 1 -2.58159 47.7985 -29.2174
ITEM: TIMESTEP
2360000
ITEM: NUMBER OF ATOMS
32
ITEM: BOX BOUNDS mm mm mm
-1.6000000000000000e+01 1.6000000000000000e+01
-1.6000000000000000e+01 4.6847030898386777e+01
-3.3632476307928613e+01 1.6000000000000000e+01
ITEM: ATOMS id type x y z
1 1 2.7908 44.697 -28.5861
2 1 2.01188 44.654 -29.1383
3 1 1.13557 44.9893 -29.2085
4 1 0.567012 45.6815 -29.4953
5 1 -0.0818956 45.0146 -29.2334
6 1 -0.88766 45.5378 -29.5266
7 1 -1.07996 46.3363 -29.9083
8 1 -1.37803 47.0853 -30.4448
9 1 -2.28301 46.9624 -30.6001
10 1 -2.8895 46.2727 -30.4136
11 1 -3.74289 45.9724 -30.314
12 1 -3.6892 45.2299 -29.7947
13 1 -3.88331 45.6027 -28.9187
14 1 -4.75851 45.8625 -28.6216
15 1 -5.33102 46.0043 -27.9179
16 1 -6.0389 46.3364 -28.4334
17 1 -6.48405 45.5967 -28.8108
18 1 -6.07102 44.9376 -29.3536
19 1 -6.53684 44.1954 -29.715
20 1 -5.72037 43.9196 -30.0891
21 1 -6.31361 43.8137 -30.8356
22 1 -6.21481 42.863 -30.9666
23 1 -6.63013 42.2019 -31.4252
24 1 -7.39215 41.6921 -31.4039
25 1 -8.13242 41.6756 -32.0217
26 1 -7.73485 40.9282 -32.364
27 1 -7.08118 40.2206 -32.3188
28 1 -6.82154 39.7896 -33.0985
29 1 -6.37931 40.451 -33.6438
30 1 -6.41017 41.3423 -33.2395
31 1 -6.78018 42.1754 -33.5343
32 1 -7.65786 42.0097 -33.8788
ITEM: TIMESTEP
2370000
ITEM: NUMBER OF ATOMS
32
ITEM: BOX BOUNDS mm mm mm
-1.6000000000000000e+01 1.6000000000000000e+01
-1.6000000000000000e+01 4.9258090055097732e+01
-2.7735554151315771e+01 1.6000000000000000e+01
ITEM: ATOMS id type x y z
1 1 1.48398 43.3441 -19.3941
2 1 1.05137 43.9498 -18.8295
3 1 0.168822 43.8286 -18.357
4 1 -0.308914 44.6341 -18.2383
5 1 -0.477758 44.3229 -19.155
6 1 -0.672852 45.0323 -19.7893
7 1 0.226401 45.0845 -20.1075
8 1 0.699714 45.5731 -20.7934
9 1 0.803647 45.0688 -21.5685
10 1 0.610495 45.2249 -22.4816
11 1 0.315011 44.4076 -22.8336
12 1 0.998937 43.745 -22.8905
13 1 0.613955 43.1953 -23.5593
14 1 0.109231 42.8829 -24.2877
15 1 -0.264785 42.3922 -24.9851
16 1 -0.524773 41.6293 -25.4195
17 1 -0.470756 42.3946 -25.9441
18 1 -1.30197 42.7951 -25.8775
19 1 -1.83392 42.6472 -25.1741
20 1 -1.63236 43.5507 -24.9446
21 1 -2.18202 44.2425 -24.6339
22 1 -2.60198 44.2479 -23.8609
23 1 -2.45552 45.2513 -24.0741
24 1 -2.40062 45.5645 -24.9328
25 1 -2.95607 46.2126 -25.3442
26 1 -2.75471 46.0405 -26.2424
27 1 -2.8767 46.0304 -27.1758
28 1 -2.34493 46.7814 -27.1701
29 1 -1.69118 47.4544 -27.1574
30 1 -2.1227 48.2224 -27.3813
31 1 -2.84926 48.8779 -27.296
32 1 -3.30761 49.3643 -27.917
ITEM: TIMESTEP
2380000
ITEM: NUMBER OF ATOMS
32
ITEM: BOX BOUNDS mm mm mm
-1.6000000000000000e+01 1.6000000000000000e+01
-1.6000000000000000e+01 4.6201843045554348e+01
-3.1235791968505659e+01 1.6000000000000000e+01
ITEM: ATOMS id type x y z
1 1 -1.28636 46.1104 -22.5309
2 1 -1.40249 45.6678 -23.3519
3 1 -1.66313 45.4229 -24.2581
4 1 -0.87615 45.024 -24.407
5 1 -0.369474 44.1835 -24.4555
6 1 -0.475963 43.3587 -23.9464
7 1 0.368628 43.0933 -23.6931
8 1 0.439516 43.5592 -24.5408
9 1 0.497779 42.8444 -25.153
10 1 0.0310656 42.0473 -25.336
11 1 -0.500769 42.8013 -25.0723
12 1 -1.09783 43.5333 -25.1866
13 1 -1.92093 43.4803 -25.6463
14 1 -2.3945 44.1306 -26.121
15 1 -1.70183 44.6516 -25.7093
16 1 -1.23575 45.3381 -26.0206
17 1 -1.00283 44.6901 -26.6827
18 1 -0.863053 45.0195 -27.5348
19 1 -0.0671073 45.4129 -27.4991
20 1 -0.0490052 45.5003 -28.4108
21 1 0.0425075 44.6835 -28.8131
22 1 0.787892 44.2235 -29.1826
23 1 0.505817 43.5256 -29.6957
24 1 -0.227983 43.2104 -29.1347
25 1 -1.04672 43.3592 -29.4863
26 1 -1.40771 42.5707 -29.9192
27 1 -1.3295 41.7419 -29.418
28 1 -1.15058 41.268 -30.2681
29 1 -0.545151 42.017 -30.3781
30 1 -0.525462 42.4236 -31.2002
31 1 0.22691 41.7826 -31.1861
32 1 0.44905 41.0406 -30.6054
ITEM: TIMESTEP
2390000
ITEM: NUMBER OF ATOMS
32
ITEM: BOX BOUNDS mm mm mm
-1.6000000000000000e+01 1.6000000000000000e+01
-1.6000000000000000e+01 4.7738723235319164e+01
-2.6601774244830398e+01 1.6000000000000000e+01
ITEM: ATOMS id type x y z
1 1 5.61685 47.6928 -22.5172
2 1 4.96729 47.6402 -21.825
3 1 4.52935 47.1272 -21.1519
4 1 3.74998 46.7033 -20.8944
5 1 2.87614 46.8795 -20.6218
6 1 2.66437 46.0178 -20.8928
7 1 2.29629 45.3059 -21.4986
8 1 2.35078 45.5014 -22.3931
9 1 1.91606 45.3383 -23.1573
10 1 2.5426 45.6703 -23.797
11 1 3.37816 45.8827 -23.7185
12 1 3.94547 46.4331 -23.1824
13 1 4.73308 46.3045 -22.6928
14 1 5.54737 45.9283 -22.9431
15 1 5.65368 45.2219 -22.3222
16 1 4.76587 45.0835 -22.6913
17 1 3.9163 45.1928 -22.3528
18 1 3.93057 44.8623 -23.2257
19 1 4.6344 44.279 -23.6485
20 1 5.21761 44.0242 -24.3504
21 1 5.29809 44.3533 -25.2857
22 1 6.10992 44.7953 -25.2152
23 1 6.63049 44.0477 -25.0149
24 1 6.68289 44.3 -24.1295
25 1 6.30636 45.1563 -24.0283
26 1 6.75401 45.5479 -24.7753
27 1 7.58068 45.8224 -24.4298
28 1 7.39075 46.3524 -25.1473
29 1 7.23211 46.19 -25.9987
30 1 6.50053 46.8019 -26.2357
31 1 5.68497 46.9347 -25.8834
32 1 5.04165 47.2614 -26.5382
ITEM: TIMESTEP
2400000
ITEM: NUMBER OF ATOMS
32
ITEM: BOX BOUNDS mm mm mm
-1.6000000000000000e+01 1.6000000000000000e+01
-1.6000000000000000e+01 4.7227549827103900e+01
-2.8692573805737201e+01 1.6000000000000000e+01
ITEM: ATOMS id type x y z
1 1 3.66251 40.7076 -21.1598
2 1 4.46552 41.2455 -21.02
3 1 4.2717 42.0684 -21.4861
4 1 5.09766 42.6096 -21.4465
5 1 4.9089 43.51 -21.6518
6 1 4.79018 44.1667 -22.314
7 1 3.91104 43.9408 -22.4551
8 1 3.72021 44.7403 -22.9156
9 1 2.89659 45.0903 -22.5867
10 1 3.04695 45.3197 -23.5228
11 1 3.41178 45.2615 -24.3707
12 1 2.58908 45.053 -24.823
13 1 2.25272 44.1698 -24.7867
14 1 2.51671 43.303 -25.0438
15 1 2.886 42.7215 -24.3787
16 1 2.40168 42.1182 -23.7926
17 1 2.3976 41.4968 -24.4927
18 1 3.1267 41.8235 -25.0093
19 1 2.98445 42.3159 -25.7701
20 1 3.44515 42.3347 -26.5759
21 1 4.07752 41.5973 -26.6429
22 1 4.48408 42.4168 -26.8517
23 1 5.31453 42.5891 -26.7242
24 1 5.40796 42.8796 -27.7011
25 1 5.24488 43.7827 -27.6724
26 1 4.52523 44.3102 -27.8978
27 1 4.33293 45.1933 -28.1184
28 1 5.07678 45.0866 -28.6721
29 1 5.4289 45.6799 -28.0448
30 1 6.08947 46.1895 -27.6083
31 1 5.608 46.2401 -26.7668
32 1 5.53137 47.0279 -27.2072
ITEM: TIMESTEP
2410000
ITEM: NUMBER OF ATOMS
32
ITEM: BOX BOUNDS mm mm mm
-1.6000000000000000e+01 1.6000000000000000e+01
-1.6000000000000000e+01 4.7768838083248930e+01
-3.4198936421655930e+01 1.6000000000000000e+01
ITEM: ATOMS id type x y z
1 1 4.88291 45.8935 -21.4969
2 1 4.51777 45.0519 -21.2485
3 1 4.19452 45.2736 -22.077
4 1 5.0591 45.0745 -22.4667
5 1 4.55205 45.5609 -23.1672
6 1 4.67756 45.9457 -24.0462
7 1 4.6634 46.8009 -24.4607
8 1 5.32034 46.6718 -23.7669
9 1 5.95075 46.3061 -24.3513
10 1 6.58931 46.0376 -23.7422
11 1 6.88073 45.1397 -23.7441
12 1 6.40346 45.2526 -24.5774
13 1 6.67373 45.2646 -25.488
14 1 6.44533 45.346 -26.4002
15 1 5.83112 45.4514 -27.0457
16 1 5.08561 45.7178 -27.5849
17 1 4.61805 45.2701 -28.2485
18 1 4.58557 45.4458 -29.1353
19 1 4.87499 46.326 -29.0081
20 1 5.03139 46.2317 -29.9223
21 1 4.70075 47.0689 -29.7126
22 1 4.62157 47.5322 -30.5332
23 1 3.75027 47.8635 -30.3844
24 1 3.16092 47.5964 -31.1685
25 1 2.57903 46.8421 -31.2892
26 1 2.94636 45.9848 -31.318
27 1 2.44278 45.3695 -31.8284
28 1 2.64766 44.6305 -32.3247
29 1 3.34619 45.1861 -32.471
30 1 2.75131 45.6772 -33.013
31 1 2.57853 44.8339 -33.3349
32 1 2.69038 45.0069 -34.2117
ITEM: TIMESTEP
2420000
ITEM: NUMBER OF ATOMS
32
ITEM: BOX BOUNDS mm mm mm
-1.6000000000000000e+01 1.6000000000000000e+01
-1.6000000000000000e+01 4.8557032079453421e+01
-3.0996873645250982e+01 1.6000000000000000e+01
ITEM: ATOMS id type x y z
1 1 4.1148 48.4103 -26.4141
2 1 4.78629 47.7704 -26.3154
3 1 4.93548 47.5916 -25.4267
4 1 4.61325 46.7525 -25.437
5 1 5.03787 46.0213 -25.8095
6 1 4.92137 45.858 -24.8525
7 1 4.0098 45.9653 -24.9837
8 1 4.10412 45.1944 -25.5036
9 1 4.59878 44.7575 -26.1781
10 1 3.78789 44.2085 -26.2034
11 1 4.28918 43.4106 -26.0073
12 1 3.5754 42.9281 -25.5923
13 1 3.55202 42.8552 -26.5759
14 1 3.69543 43.5839 -27.1778
15 1 4.52251 42.9835 -27.3694
16 1 5.14122 42.4972 -26.8418
17 1 5.97516 42.9332 -26.4736
18 1 6.67896 42.4504 -26.7981
19 1 7.45072 42.1134 -27.245
20 1 7.61484 42.2158 -28.1949
21 1 7.23091 42.7217 -28.855
22 1 7.97297 43.3042 -28.6528
23 1 8.71929 43.9137 -28.4989