ITEM: TIMESTEP
1180000
ITEM: NUMBER OF ATOMS
32
ITEM: BOX BOUNDS mm mm mm
-1.6000000000000000e+01 1.6000000000000000e+01
-1.6000000000000000e+01 1.6000000000000000e+01
-1.9058092865149789e+01 1.6000000000000000e+01
ITEM: ATOMS id type x y z
1 1 -3.5465 0.896953 -18.437
2 1 -3.95235 1.68643 -18.2118
3 1 -3.23277 2.04227 -17.7854
4 1 -2.49746 2.35838 -17.2804
5 1 -2.44816 3.12394 -17.8094
6 1 -1.57005 3.35881 -17.867
7 1 -0.861974 3.86709 -17.4875
8 1 -0.991156 3.72551 -16.5653
9 1 -0.75078 3.85295 -15.6789
10 1 -1.01869 2.93386 -15.3607
11 1 -1.0321 3.17444 -14.488
12 1 -1.28611 2.35071 -14.2895
13 1 -1.44127 1.6134 -14.8542
14 1 -0.780836 1.2297 -14.3309
15 1 -0.123668 0.970863 -14.9693
16 1 0.310505 0.219153 -15.3924
17 1 1.1187 -0.0454998 -15.8501
18 1 1.43676 -0.219735 -14.9927
19 1 1.34749 0.676048 -15.1382
20 1 1.99941 1.23612 -15.4382
21 1 2.48478 1.41661 -16.2701
22 1 2.90553 1.80572 -17.0131
23 1 3.35888 2.18962 -17.7751
24 1 4.08334 1.78474 -18.2219
25 1 4.63884 2.34346 -17.7942
26 1 4.41177 2.01973 -16.9777
27 1 5.18665 2.43518 -16.6827
28 1 5.63701 1.67713 -16.9506
29 1 5.88163 0.778528 -17.3036
30 1 5.64665 0.632277 -18.1751
31 1 5.89806 0.426436 -19.0546
32 1 6.05176 -0.443306 -18.6479
ITEM: TIMESTEP
1190000
ITEM: NUMBER OF ATOMS
32
ITEM: BOX BOUNDS mm mm mm
-1.6000000000000000e+01 1.6000000000000000e+01
-1.6000000000000000e+01 1.6000000000000000e+01
-2.2242015260973837e+01 1.6000000000000000e+01
ITEM: ATOMS id type x y z
1 1 6.72967 1.57318 -19.6964
2 1 6.24334 0.773999 -19.8637
3 1 5.55574 0.178447 -20.1059
4 1 4.67397 0.457316 -20.0155
5 1 5.07535 1.01697 -19.3369
6 1 4.17604 1.2467 -19.1553
7 1 3.51778 1.85929 -18.8213
8 1 2.7047 2.36932 -18.9136
9 1 2.06967 1.93422 -18.3936
10 1 1.24428 1.49016 -18.3318
11 1 1.39487 0.576007 -18.5822
12 1 0.593725 0.299796 -18.2316
13 1 0.731475 -0.394225 -18.8209
14 1 0.851775 -1.17146 -19.2819
15 1 0.531451 -1.90597 -18.8582
16 1 0.0814625 -2.41323 -19.5517
17 1 0.14915 -2.22349 -20.4439
18 1 0.916604 -2.58575 -20.6559
19 1 1.61756 -2.0799 -20.9077
20 1 2.25197 -2.55862 -21.4618
21 1 3.01184 -2.52111 -20.965
22 1 2.72884 -1.6363 -20.9808
23 1 3.33278 -1.78989 -21.696
24 1 4.02555 -1.23273 -22.0797
25 1 4.36528 -2.10599 -22.2385
26 1 5.14676 -1.75852 -21.8567
27 1 4.88777 -2.21296 -21.1108
28 1 5.3555 -2.48142 -20.3045
29 1 5.18609 -3.38365 -20.4972
30 1 5.33715 -3.75967 -21.3826
31 1 6.27097 -3.598 -21.4172
32 1 6.12902 -4.41895 -21.7659
ITEM: TIMESTEP
1200000
ITEM: NUMBER OF ATOMS
32
ITEM: BOX BOUNDS mm mm mm
-1.6000000000000000e+01 1.6000000000000000e+01
-1.6000000000000000e+01 1.6000000000000000e+01
-2.4878473085301643e+01 1.6000000000000000e+01
ITEM: ATOMS id type x y z
1 1 4.83729 0.682758 -20.9907
2 1 5.4297 1.21803 -21.49
3 1 5.61691 1.8659 -20.8486
4 1 5.56704 2.67248 -20.4161
5 1 6.07083 2.07079 -19.8664
6 1 6.21617 1.46168 -19.188
7 1 6.32358 0.783549 -18.4818
8 1 7.31535 0.58911 -18.6802
9 1 7.33007 0.606638 -19.623
10 1 6.4996 0.1208 -19.6789
11 1 5.71337 0.567329 -19.4364
12 1 5.30336 1.32297 -19.8698
13 1 4.36225 1.31778 -20.0418
14 1 4.08119 1.97283 -20.5942
15 1 3.4202 1.32536 -20.5554
16 1 2.60123 1.7849 -20.4123
17 1 2.32032 1.90313 -21.316
18 1 2.63978 1.2934 -21.9499
19 1 3.36266 1.42522 -22.5219
20 1 2.9849 0.530192 -22.5881
21 1 3.22555 -0.301493 -22.9185
22 1 3.96193 -0.667758 -22.4893
23 1 4.49334 -1.51845 -22.6285
24 1 4.11658 -2.31348 -22.1647
25 1 4.3387 -3.26972 -22.1793
26 1 3.99212 -3.53334 -23.0198
27 1 4.21799 -2.86232 -23.5836
28 1 3.92616 -2.04342 -23.7991
29 1 3.33284 -1.38099 -24.1694
30 1 3.09316 -0.835901 -24.875
31 1 4.03226 -0.758559 -24.8724
32 1 4.46615 -0.946119 -24.0526
ITEM: TIMESTEP
1210000
ITEM: NUMBER OF ATOMS
32
ITEM: BOX BOUNDS mm mm mm
-1.6000000000000000e+01 1.6000000000000000e+01
-1.6000000000000000e+01 1.6000000000000000e+01
-2.7345860310447485e+01 1.6000000000000000e+01
ITEM: ATOMS id type x y z
1 1 -3.44701 -2.28823 -22.8894
2 1 -3.27519 -1.91444 -23.7496
3 1 -2.44368 -2.46763 -23.7441
4 1 -1.92499 -2.60932 -24.4996
5 1 -2.40785 -2.79576 -25.2461
6 1 -1.59358 -2.55886 -25.6365
7 1 -1.17566 -1.71979 -25.5591
8 1 -0.718782 -1.53247 -24.7687
9 1 -0.577748 -2.29881 -24.2143
10 1 0.30399 -2.54442 -24.6265
11 1 -0.182639 -2.4581 -25.4311
12 1 -0.088947 -1.82398 -26.1154
13 1 0.591142 -1.19331 -26.4772
14 1 0.72282 -1.57551 -27.3424
15 1 1.6749 -1.3336 -27.2828
16 1 1.78365 -1.4245 -26.3872
17 1 2.35549 -2.16179 -26.5062
18 1 2.66321 -2.02133 -25.615
19 1 3.05069 -2.13329 -24.7582
20 1 2.99856 -2.76851 -24.059
21 1 3.85659 -2.7268 -23.5818
22 1 4.32841 -3.32102 -24.1421
23 1 3.97308 -3.91069 -23.5366
24 1 4.74794 -4.42727 -23.4295
25 1 5.1629 -4.66465 -22.6311
26 1 4.79368 -4.81764 -21.7811
27 1 4.04644 -4.61812 -21.2407
28 1 3.83991 -5.48669 -20.9844
29 1 3.18214 -6.07628 -21.1568
30 1 3.49948 -6.6617 -20.5128
31 1 3.07565 -7.47096 -20.4623
32 1 2.31098 -7.66161 -20.9819
ITEM: TIMESTEP
1220000
ITEM: NUMBER OF ATOMS
32
ITEM: BOX BOUNDS mm mm mm
-1.6000000000000000e+01 1.6000000000000000e+01
-1.6000000000000000e+01 1.6000000000000000e+01
-2.7143333960977699e+01 1.6000000000000000e+01
ITEM: ATOMS id type x y z
1 1 0.14836 -2.34745 -26.4824
2 1 -0.441059 -3.0678 -26.3713
3 1 -0.232989 -3.82452 -25.8563
4 1 -0.00978469 -4.12293 -26.7594
5 1 -0.829056 -4.41632 -27.1398
6 1 -1.59325 -4.06372 -26.7926
7 1 -2.26133 -3.36557 -26.7833
8 1 -1.98357 -2.47364 -26.838
9 1 -2.5316 -1.87009 -26.386
10 1 -2.89618 -1.39822 -25.6783
11 1 -3.10891 -0.903516 -24.8969
12 1 -2.95061 -0.00705244 -24.6136
13 1 -3.10207 0.208515 -23.7283
14 1 -2.30852 0.257106 -23.2604
15 1 -1.5876 0.304046 -23.8454
16 1 -1.2345 -0.644261 -23.6322
17 1 -1.61693 -1.47617 -23.8879
18 1 -1.72176 -2.35609 -24.2969
19 1 -2.54657 -2.09697 -23.9132
20 1 -2.75106 -1.36054 -23.3962
21 1 -3.12234 -1.98219 -22.7349
22 1 -3.26649 -1.87167 -21.8217
23 1 -2.99506 -2.19685 -21.0049
24 1 -3.73323 -1.62482 -20.6867
25 1 -3.98019 -1.97307 -19.8548
26 1 -3.87187 -2.31488 -19.0418
27 1 -3.13769 -1.70318 -19.1408
28 1 -2.86203 -0.814168 -18.8666
29 1 -2.01721 -1.21684 -18.5644
30 1 -1.57075 -0.805144 -17.8188
31 1 -1.29087 0.086589 -18.0077
32 1 -0.526385 0.653 -18.0484
ITEM: TIMESTEP
1230000
ITEM: NUMBER OF ATOMS
32
ITEM: BOX BOUNDS mm mm mm
-1.6000000000000000e+01 1.6000000000000000e+01
-1.6000000000000000e+01 1.6000000000000000e+01
-3.1789962769071256e+01 1.6000000000000000e+01
ITEM: ATOMS id type x y z
1 1 -2.15124 -6.77791 -31.7865
2 1 -2.23742 -6.05877 -31.1311
3 1 -1.8502 -5.15062 -30.9333
4 1 -1.99304 -4.89278 -30.0222
5 1 -1.33514 -5.1715 -29.3916
6 1 -1.04374 -4.32008 -29.239
7 1 -1.00421 -3.69907 -28.4471
8 1 -1.06439 -2.8178 -28.1269
9 1 -0.72581 -1.97164 -28.4284
10 1 -1.18747 -2.22486 -29.2816
11 1 -2.05913 -2.19718 -29.0006
12 1 -2.09985 -1.45501 -28.3884
13 1 -2.63977 -0.721286 -28.1716
14 1 -1.77776 -0.425983 -27.9316
15 1 -1.6705 -0.46119 -27.0048
16 1 -1.32942 0.396356 -26.7469
17 1 -1.5111 0.772501 -25.9518
18 1 -2.29359 0.329489 -25.8846
19 1 -2.73009 0.791521 -25.1875
20 1 -3.60694 0.784915 -25.5206
21 1 -4.40364 0.812829 -25.1249
22 1 -4.79119 0.165195 -24.6234
23 1 -5.1126 -0.486328 -25.2502
24 1 -4.80957 -1.1789 -24.7004
25 1 -5.75595 -1.23022 -24.6718
26 1 -6.60456 -1.09653 -24.319
27 1 -7.0581 -0.575232 -24.9234
28 1 -7.52904 -0.413712 -25.7701
29 1 -8.33151 -0.591994 -26.2528
30 1 -8.78541 -1.09139 -25.6307
31 1 -8.55387 -1.09259 -24.7325
32 1 -7.86157 -0.973999 -24.0817
ITEM: TIMESTEP
1240000
ITEM: NUMBER OF ATOMS
32
ITEM: BOX BOUNDS mm mm mm
-1.6000000000000000e+01 1.6000000000000000e+01
-1.6000000000000000e+01 1.6000000000000000e+01
-2.7930854404334056e+01 1.6000000000000000e+01
ITEM: ATOMS id type x y z
1 1 0.728654 3.16285 -25.5563
2 1 -0.157846 2.859 -25.7764
3 1 -0.308747 2.04572 -26.1528
4 1 -1.0292 2.24029 -25.5576
5 1 -1.38525 2.59573 -24.7516
6 1 -2.18812 2.17456 -24.4952
7 1 -2.47869 1.83958 -25.3266
8 1 -1.95224 1.08824 -25.1213
9 1 -1.80603 1.10517 -26.0457
10 1 -2.65118 1.12458 -26.4902
11 1 -3.40434 1.61656 -26.4042
12 1 -3.92587 0.906708 -26.057
13 1 -4.68868 0.989732 -25.572
14 1 -4.80522 0.0951405 -25.9089
15 1 -4.27455 -0.202638 -26.6754
16 1 -5.00964 -0.533301 -27.1464
17 1 -5.76959 -0.886195 -26.793
18 1 -6.56976 -0.499499 -26.6517
19 1 -6.81011 0.314542 -27.0834
20 1 -7.18768 1.04558 -26.6493
21 1 -7.17534 0.516927 -25.8979
22 1 -7.92462 0.0343988 -26.2146
23 1 -8.77567 0.369757 -26.3341
24 1 -8.91891 -0.205051 -27.0854
25 1 -9.1438 0.111658 -27.9273
26 1 -8.54474 0.797057 -27.5425
27 1 -8.95354 1.61745 -27.4513
28 1 -8.12302 1.8985 -27.108
29 1 -7.63441 2.57109 -27.5931
30 1 -7.04647 2.71471 -26.8535
31 1 -6.44528 3.32942 -26.4994
32 1 -6.78211 3.63729 -27.3161
ITEM: TIMESTEP
1250000
ITEM: NUMBER OF ATOMS
32
ITEM: BOX BOUNDS mm mm mm
-1.6000000000000000e+01 1.6000000000000000e+01
-1.6000000000000000e+01 1.6000000000000000e+01
-3.4124358599944877e+01 1.6000000000000000e+01
ITEM: ATOMS id type x y z
1 1 1.07695 2.91548 -33.9954
2 1 0.434023 3.31388 -33.3988
3 1 0.0115302 3.29829 -32.5734
4 1 0.328435 4.09419 -32.1947
5 1 -0.233659 4.65374 -32.7053
6 1 -0.0636849 5.33042 -32.1213
7 1 0.298382 6.06234 -31.6338
8 1 -0.154721 5.69383 -30.9185
9 1 -0.88681 6.32006 -30.7747
10 1 -0.412471 7.14763 -30.917
11 1 -0.196803 7.55086 -31.7939
12 1 -1.0937 7.80446 -31.982
13 1 -0.951644 7.05339 -32.4897
14 1 -1.42162 6.31725 -32.8463
15 1 -2.25461 6.09339 -32.5427
16 1 -2.40173 5.89269 -33.4838
17 1 -3.13283 5.93915 -34.1209
18 1 -3.78222 5.55951 -33.5675
19 1 -4.53998 5.12883 -33.2531
20 1 -5.46396 4.92745 -33.0556
21 1 -5.87562 4.97063 -32.2463
22 1 -5.35506 4.29456 -31.8434
23 1 -4.55567 4.42837 -31.3887
24 1 -3.69048 4.03354 -31.1637
25 1 -3.72012 3.13503 -30.8113
26 1 -3.71779 2.51521 -30.0981
27 1 -3.57124 2.20417 -29.2274
28 1 -3.21982 1.30297 -29.094
29 1 -2.33291 1.29448 -28.7123
30 1 -1.83568 0.44935 -28.7254
31 1 -1.75117 -0.475401 -28.446
32 1 -2.6653 -0.324691 -28.372
ITEM: TIMESTEP
1260000
ITEM: NUMBER OF ATOMS
32
ITEM: BOX BOUNDS mm mm mm
-1.6000000000000000e+01 1.6000000000000000e+01
-1.6000000000000000e+01 1.6000000000000000e+01
-3.5460301940913105e+01 1.6000000000000000e+01
ITEM: ATOMS id type x y z
1 1 -0.62568 5.81709 -35.4568
2 1 -0.459847 6.22543 -34.5614
3 1 -1.1644 5.61146 -34.5363
4 1 -0.955838 4.9967 -33.8547
5 1 -1.13822 4.36241 -33.1312
6 1 -0.499082 4.80877 -32.5608
7 1 -1.22459 4.491 -31.9761
8 1 -0.567346 4.01352 -31.4713
9 1 -0.0091239 3.2649 -31.4321
10 1 -0.092015 2.65895 -32.1876
11 1 0.62153 3.23537 -32.3545
12 1 1.40343 3.79184 -32.5095
13 1 1.84792 4.44694 -32.0387
14 1 1.32576 4.70853 -31.266
15 1 1.78629 5.48275 -31.6366
16 1 2.00467 5.99779 -30.8872
17 1 1.48796 6.31815 -30.195
18 1 1.04447 5.64194 -29.7882
19 1 1.11586 5.61905 -28.7821
20 1 1.55054 5.09064 -28.1075
21 1 0.578193 5.36528 -27.9184
22 1 -0.224095 5.12689 -27.5068
23 1 -0.582795 4.43377 -28.0234
24 1 -0.124679 4.34372 -28.8936
25 1 0.40325 4.38355 -28.1155
26 1 0.180852 3.65674 -27.5659
27 1 0.690701 3.04137 -27.0561
28 1 1.13022 3.7577 -26.6134
29 1 1.14696 4.65267 -26.3455
30 1 0.879815 5.21706 -25.6266
31 1 0.761768 4.43589 -25.1319
32 1 0.534645 5.16556 -24.5317
ITEM: TIMESTEP
1270000
ITEM: NUMBER OF ATOMS
32
ITEM: BOX BOUNDS mm mm mm
-1.6000000000000000e+01 1.6000000000000000e+01
-1.6000000000000000e+01 1.6000000000000000e+01
-3.8209281303399628e+01 1.6000000000000000e+01
ITEM: ATOMS id type x y z
1 1 3.4285 8.32062 -38.2058
2 1 2.59087 8.75527 -37.9891
3 1 2.74752 9.56007 -37.4318
4 1 3.00681 10.4782 -37.5873
5 1 2.65896 10.6031 -36.7647
6 1 2.94036 10.4232 -35.9046
7 1 3.05105 10.3365 -34.9564
8 1 3.47308 10.2869 -34.0671
9 1 4.0733 10.6559 -33.4206
10 1 4.02942 10.1875 -32.5494
11 1 3.93404 9.99563 -31.6312
12 1 4.32869 9.36732 -31.0438
13 1 4.52414 8.74486 -30.4341
14 1 4.02365 8.19483 -29.844
15 1 3.35632 8.60044 -29.2855
16 1 3.35172 8.48651 -28.3391
17 1 3.49985 7.59439 -28.3055
18 1 3.99833 7.05177 -27.7607
19 1 3.7379 6.22689 -27.325
20 1 3.09273 5.54187 -27.1917
21 1 2.31534 4.9943 -26.9546
22 1 1.53289 4.80003 -26.4715
23 1 0.615639 4.45671 -26.3213
24 1 -0.261943 4.7272 -26.4034
25 1 -0.317887 5.549 -25.9499
26 1 -0.270518 4.84042 -25.2782
27 1 -0.224479 3.92196 -25.6342
28 1 0.540975 3.48882 -25.2845
29 1 0.878016 2.59454 -25.2564
30 1 1.5646 2.84919 -24.6624
31 1 2.37671 2.80253 -25.1182
32 1 2.40158 1.86901 -25.0108
ITEM: TIMESTEP
1280000
ITEM: NUMBER OF ATOMS
32
ITEM: BOX BOUNDS mm mm mm
-1.6000000000000000e+01 1.6000000000000000e+01
-1.6000000000000000e+01 1.6000000000000000e+01
-3.0005379129513813e+01 1.6000000000000000e+01
ITEM: ATOMS id type x y z
1 1 5.53218 9.72838 -28.6309
2 1 5.27263 9.99555 -29.4628
3 1 5.30035 10.8003 -30.0019
4 1 5.1292 11.7422 -29.769
5 1 4.57645 12.2001 -29.1217
6 1 4.75696 12.6127 -28.2565
7 1 4.34666 12.2218 -27.5
8 1 3.94894 11.437 -27.1928
9 1 3.39507 11.0354 -26.5897
10 1 3.72362 10.6211 -25.7645
11 1 3.23225 11.12 -25.1299
12 1 2.51355 11.6771 -24.9858
13 1 2.02634 12.4074 -24.7477
14 1 1.36999 12.1903 -24.1709
15 1 1.96501 12.6894 -23.6248
16 1 2.6628 12.6989 -22.9515
17 1 2.36168 12.7429 -22.0176
18 1 2.30565 12.6354 -21.097
19 1 2.86954 12.4781 -20.358
20 1 3.28295 11.6321 -20.348
21 1 4.14686 11.7664 -20.6945
22 1 3.93044 11.1396 -21.422
23 1 3.82035 10.2391 -21.6348
24 1 4.4145 9.51563 -22.0172
25 1 4.91015 9.49798 -22.8169
26 1 4.91965 10.068 -23.5427
27 1 4.33255 9.31239 -23.6977
28 1 3.43564 8.91031 -23.7777
29 1 2.78344 9.3043 -23.1785
30 1 2.00261 9.13338 -22.6567
31 1 1.46334 9.82723 -22.3406
32 1 2.05297 10.6556 -22.6376
ITEM: TIMESTEP
1290000
ITEM: NUMBER OF ATOMS
32
ITEM: BOX BOUNDS mm mm mm
-1.6000000000000000e+01 1.6000000000000000e+01
-1.6000000000000000e+01 1.6420354233732553e+01
-2.8333450244590594e+01 1.6000000000000000e+01
ITEM: ATOMS id type x y z
1 1 7.39866 11.1583 -25.3621
2 1 8.00497 11.7659 -25.7003
3 1 7.79553 12.527 -26.264
4 1 8.17085 13.3055 -26.6868
5 1 8.64136 14.0303 -27.1715
6 1 9.06714 14.7391 -26.7274
7 1 8.74682 15.2877 -27.5255
8 1 7.78671 15.2001 -27.4816
9 1 7.32523 15.2222 -28.3299
10 1 6.90431 15.7779 -27.7066
11 1 6.08764 15.53 -27.2828
12 1 5.40842 15.5451 -27.9246
13 1 4.53609 15.7619 -28.0797
14 1 4.00956 15.9345 -27.25
15 1 4.75078 15.9642 -26.639
16 1 4.71457 15.8858 -25.6942
17 1 4.17095 15.4767 -25.0664
18 1 4.60686 14.7031 -24.8618
19 1 5.46662 15.109 -24.9059
20 1 5.92568 15.3518 -24.0681
21 1 5.49145 15.8618 -23.3556
22 1 4.74728 15.3698 -23.0921
23 1 3.905 15.6167 -23.5029
24 1 3.19215 16.1478 -23.631
25 1 2.29174 15.9786 -23.4858
26 1 2.04949 15.4566 -22.7339
27 1 1.21927 15.6514 -22.3426
28 1 0.731329 15.7518 -21.5563
29 1 0.186183 16.4172 -21.2231
30 1 0.184037 16.3536 -20.2797
31 1 0.00866091 15.4985 -19.8498
32 1 -0.625319 15.6453 -19.2042
ITEM: TIMESTEP
1300000
ITEM: NUMBER OF ATOMS
32
ITEM: BOX BOUNDS mm mm mm
-1.6000000000000000e+01 1.6000000000000000e+01
-1.6000000000000000e+01 2.2061171392591675e+01
-2.5509081423254027e+01 1.6000000000000000e+01
ITEM: ATOMS id type x y z
1 1 8.02354 16.0109 -25.1271
2 1 8.90922 15.9701 -25.5056
3 1 8.74733 15.4153 -24.7613
4 1 9.26463 15.1586 -23.9928
5 1 8.67667 15.4359 -23.2596
6 1 7.90688 14.8754 -23.3126
7 1 7.01313 14.926 -23.3863
8 1 6.48443 15.7111 -23.5029
9 1 5.88719 15.6716 -22.7078
10 1 6.26426 15.9605 -21.898
11 1 7.05915 16.4268 -21.8723
12 1 7.91061 16.9253 -21.7034
13 1 8.46464 17.2115 -20.955
14 1 7.52117 17.5135 -20.6967
15 1 6.72547 17.1796 -21.1211
16 1 6.00277 17.7534 -21.2399
17 1 5.27366 17.4334 -21.7602
18 1 4.58499 16.8547 -21.9806
19 1 3.68674 17.0193 -22.2104
20 1 3.04716 16.8737 -21.5207
21 1 3.00831 17.79 -21.7512
22 1 2.47169 18.1322 -22.4644
23 1 1.53229 18.1339 -22.557
24 1 1.60734 17.8061 -23.4072
25 1 1.20335 18.7114 -23.4945
26 1 1.18524 19.4773 -24.0212
27 1 1.08547 20.4745 -23.7819
28 1 1.55047 20.3673 -23.0333
29 1 1.8904 20.9995 -22.4486
30 1 1.69029 21.2816 -21.5418
31 1 2.24244 22.058 -21.4642
32 1 2.34985 21.7532 -20.5545
ITEM: TIMESTEP
1310000
ITEM: NUMBER OF ATOMS
32
ITEM: BOX BOUNDS mm mm mm
-1.6000000000000000e+01 1.6000000000000000e+01
-1.6000000000000000e+01 1.6987004562358479e+01
-2.3377394785939146e+01 1.6000000000000000e+01
ITEM: ATOMS id type x y z
1 1 7.50583 16.1392 -23.3739
2 1 7.04224 15.7368 -22.6945
3 1 6.49044 15.9934 -21.9771
4 1 5.98635 16.1765 -22.8069
5 1 5.10235 16.1008 -23.0985
6 1 5.30428 15.565 -22.3565
7 1 4.85535 15.3708 -21.6027
8 1 3.9431 15.5973 -21.3556
9 1 3.4214 16.203 -20.8833
10 1 2.75024 16.832 -21.1699
11 1 2.02763 16.225 -21.1039
12 1 1.52855 16.7076 -20.3999
13 1 0.74068 16.9838 -19.9857
14 1 -0.0334719 16.5468 -20.285
15 1 -0.570406 15.98 -20.8156
16 1 -0.878088 15.0962 -20.7823
17 1 -0.555512 14.6211 -20.052
18 1 0.172001 14.018 -20.2018
19 1 0.584018 13.676 -20.954
20 1 1.33207 14.1823 -20.6633
21 1 2.10136 14.5305 -20.1326
22 1 2.56595 13.9678 -19.5163
23 1 3.06348 13.1571 -19.506
24 1 3.72657 12.4562 -19.5987
25 1 3.98247 13.2621 -19.9553
26 1 4.49149 14.0227 -20.0542
27 1 4.86597 14.7868 -19.5762
28 1 4.76261 15.4744 -18.956
29 1 5.26309 16.3122 -19.0649
30 1 5.22763 16.4886 -18.136
31 1 4.39412 15.9758 -18.1576
32 1 5.00772 15.4395 -17.6824
ITEM: TIMESTEP
1320000
ITEM: NUMBER OF ATOMS
32
ITEM: BOX BOUNDS mm mm mm
-1.6000000000000000e+01 1.6000000000000000e+01
-1.6000000000000000e+01 1.8142447407997395e+01
-2.3764445928040598e+01 1.6000000000000000e+01
ITEM: ATOMS id type x y z
1 1 4.35586 14.7363 -23.0339
2 1 5.03016 14.8255 -23.707
3 1 5.91247 15.2114 -23.7609
4 1 5.86495 16.0516 -23.4185
5 1 5.41411 16.5666 -22.7583
6 1 6.22358 16.7669 -22.3735
7 1 5.61626 16.9092 -21.6928
8 1 5.78623 16.279 -21.0184
9 1 5.23379 15.5192 -20.9332
10 1 4.67 15.9055 -20.3082
11 1 4.56596 16.0793 -19.4335
12 1 3.90124 15.4704 -19.635
13 1 3.14318 15.2602 -20.0844
14 1 3.39635 15.8647 -20.7724
15 1 3.67817 16.4624 -21.4415
16 1 3.18048 17.1527 -21.8398
17 1 3.35411 18.087 -21.9512
18 1 3.05671 18.1392 -21.0092
19 1 2.96311 17.7869 -20.1389
20 1 2.4242 17.0106 -20.3273
21 1 2.10439 17.4286 -19.5926
22 1 2.03794 16.7729 -18.9745
23 1 2.53687 16.1645 -18.4342
24 1 3.19682 15.555 -18.4297
25 1 4.01253 15.1543 -18.3024
26 1 4.50108 14.4358 -18.5823
27 1 4.51039 14.304 -17.7335
28 1 5.44092 14.2529 -17.6818
29 1 5.68187 14.0666 -16.7607
30 1 5.06919 14.6108 -16.2637
31 1 5.46844 14.4349 -15.415
32 1 5.81352 14.6068 -14.5428
ITEM: TIMESTEP
1330000
ITEM: NUMBER OF ATOMS
32
ITEM: BOX BOUNDS mm mm mm
-1.6000000000000000e+01 1.6000000000000000e+01
-1.6000000000000000e+01 2.0691356959112401e+01
-2.5442664607916576e+01 1.6000000000000000e+01
ITEM: ATOMS id type x y z
1 1 2.57602 19.1492 -25.4392
2 1 3.19056 19.7226 -25.0317
3 1 2.78133 20.2061 -24.3259
4 1 2.66729 20.0072 -23.332
5 1 3.5483 19.7064 -23.5653
6 1 4.38683 19.7309 -23.1066
7 1 4.57053 20.6882 -22.9741
8 1 4.12905 20.2971 -22.2602
9 1 3.75993 20.2494 -21.4108
10 1 2.93563 19.8742 -21.245
11 1 3.08325 19.4334 -22.0821
12 1 3.71178 18.7081 -22.1705
13 1 4.5783 18.9691 -22.1119
14 1 5.03917 19.7614 -21.8906
15 1 5.64441 19.4108 -21.2355
16 1 6.35213 19.2114 -20.6384
17 1 6.32476 18.7199 -19.8251
18 1 7.20987 18.3979 -19.8877
19 1 8.02256 18.3331 -19.4241
20 1 8.2954 17.6329 -18.8693
21 1 8.37658 17.2009 -17.9319
22 1 7.56985 16.7254 -18.2862
23 1 7.30361 17.1107 -19.0954
24 1 6.43689 17.4611 -19.2958
25 1 6.0509 16.9447 -18.667
26 1 6.42308 16.3907 -19.3514
27 1 6.91721 15.5796 -19.2636
28 1 7.70339 15.4091 -18.7909
29 1 7.96527 14.5598 -19.1862
30 1 8.28096 14.0059 -18.4904
31 1 7.56072 13.517 -18.8749
32 1 6.81392 13.3266 -19.4057
ITEM: TIMESTEP
1340000
ITEM: NUMBER OF ATOMS
32
ITEM: BOX BOUNDS mm mm mm
-1.6000000000000000e+01 1.6000000000000000e+01
-1.6000000000000000e+01 2.8143862344254977e+01
-2.3315774189431618e+01 1.6000000000000000e+01
ITEM: ATOMS id type x y z
1 1 0.366673 27.9377 -20.1783
2 1 -0.429186 28.1407 -19.7334
3 1 -0.493188 27.3834 -19.2066
4 1 0.364852 27.6574 -18.8856
5 1 0.806058 27.0593 -19.403
6 1 0.736582 26.1922 -19.8988
7 1 0.773847 25.4514 -19.3147
8 1 1.53835 25.0732 -19.0032
9 1 2.37703 24.9959 -19.3539
10 1 2.78653 24.1189 -19.3095
11 1 3.63823 24.3887 -19.5136
12 1 4.00127 23.5794 -19.1014
13 1 3.55971 23.0052 -19.7588
14 1 2.95256 22.3947 -20.1669
15 1 2.95522 21.5893 -19.7596
16 1 3.39573 20.8625 -19.3869
17 1 3.42394 19.9334 -19.1336
18 1 4.05905 19.2172 -19.2433
19 1 4.21341 18.5433 -19.8254
20 1 4.89574 18.3716 -20.435
21 1 5.48606 18.7376 -21.0307
22 1 4.69069 18.5882 -21.4937
23 1 3.96284 18.4383 -22.1621
24 1 3.7824 18.9896 -22.8909
25 1 3.53704 19.8115 -23.2572
26 1 2.61986 20.0538 -23.1279
27 1 1.85416 19.5733 -23.3123
28 1 1.50824 19.0485 -22.6071
29 1 2.06264 18.3235 -22.6816
30 1 1.777 17.4529 -22.667
31 1 1.69166 16.7512 -22.067
32 1 1.21594 16.7045 -21.2821
ITEM: TIMESTEP
1350000
ITEM: NUMBER OF ATOMS
32
ITEM: BOX BOUNDS mm mm mm
-1.6000000000000000e+01 1.6000000000000000e+01
-1.6000000000000000e+01 2.5746751019299900e+01
-2.8007180438554823e+01 1.6000000000000000e+01
ITEM: ATOMS id type x y z
1 1 2.036 25.7436 -18.8194
2 1 2.06793 24.7982 -18.8366
3 1 2.43343 24.4438 -18.0932
4 1 2.30282 23.7697 -18.8172
5 1 3.21492 23.9467 -18.9802
6 1 3.3766 23.548 -19.7972
7 1 3.1763 23.3189 -20.6822
8 1 3.28428 23.737 -21.4938
9 1 3.53868 24.6652 -21.6808
10 1 2.90572 24.9874 -22.3016
11 1 2.54292 24.3513 -22.8561
12 1 2.72681 23.541 -23.4187
13 1 3.19357 22.7783 -23.6651
14 1 3.36124 22.2503 -22.9224
15 1 3.20777 21.425 -23.4079
16 1 2.51374 20.8222 -23.3101
17 1 2.49835 21.0378 -24.2605
18 1 3.36255 20.6721 -24.4427
19 1 4.12421 21.2608 -24.5827
20 1 5.03538 21.1282 -24.5892
21 1 5.325 21.016 -25.5192
22 1 4.99145 20.2657 -25.9624
23 1 4.79727 20.8785 -26.6724
24 1 3.96344 20.8291 -26.1704
25 1 3.49746 20.0041 -26.3336
26 1 3.87502 19.4005 -26.878
27 1 4.27631 18.8181 -26.2573
28 1 3.50997 18.6184 -25.7585
29 1 2.82036 18.9443 -26.2814
30 1 2.64692 19.5564 -27.0131
31 1 1.76985 19.7962 -27.1784
32 1 1.33758 19.8051 -28.0037
ITEM: TIMESTEP
1360000
ITEM: NUMBER OF ATOMS
32
ITEM: BOX BOUNDS mm mm mm
-1.6000000000000000e+01 1.6000000000000000e+01
-1.6000000000000000e+01 1.9270152140708774e+01
-2.6908041706118532e+01 1.6000000000000000e+01
ITEM: ATOMS id type x y z
1 1 5.70044 18.7532 -19.9373
2 1 5.18442 18.1225 -19.6187
3 1 5.07267 17.3443 -19.1335
4 1 5.09876 16.8839 -18.3003
5 1 4.19352 16.9377 -18.1974
6 1 3.33594 17.2755 -18.2185
7 1 2.83553 17.596 -18.9672
8 1 3.04612 16.7332 -19.4558
9 1 2.97474 16.1092 -20.134
10 1 2.06245 15.7619 -20.3212
11 1 1.18096 16.0576 -20.4945
12 1 1.32822 16.2409 -19.5963
13 1 1.0357 17.0887 -19.9122
14 1 1.84833 17.5915 -20.1106
15 1 1.52701 17.7889 -20.9389
16 1 1.22891 18.6403 -20.6953
17 1 1.84847 19.267 -20.4356
18 1 2.76577 19.0196 -20.2791
19 1 2.84765 18.5486 -21.0895
20 1 3.64914 18.1402 -21.3415
21 1 3.61357 17.9717 -22.2879
22 1 4.53199 18.2463 -22.2673
23 1 4.58661 18.3601 -23.1849
24 1 4.40198 18.4688 -24.1845
25 1 4.64953 17.6489 -24.7257
26 1 5.57344 17.5544 -25.0716
27 1 6.41749 17.112 -25.2733
28 1 6.46975 17.072 -26.2077
29 1 7.32727 17.1765 -25.8308
30 1 7.7871 16.348 -25.8989
31 1 8.52129 15.7894 -26.168
32 1 8.1219 15.2305 -26.9045
ITEM: TIMESTEP
1370000
ITEM: NUMBER OF ATOMS
32
ITEM: BOX BOUNDS mm mm mm
-1.6000000000000000e+01 1.6000000000000000e+01
-1.6000000000000000e+01 2.3725310083548703e+01
-2.5073716399572447e+01 1.6000000000000000e+01
ITEM: ATOMS id type x y z
1 1 5.89979 15.5454 -22.0038
2 1 5.94658 16.4528 -21.5822
3 1 5.44867 17.2564 -21.9082
4 1 5.26914 17.1027 -22.8396
5 1 5.89707 17.6033 -23.3122
6 1 5.47393 17.9998 -24.002
7 1 4.67642 17.6845 -24.3905
8 1 3.87042 17.7923 -23.888
9 1 3.71512 16.9599 -24.3287
10 1 3.05264 16.6291 -23.718
11 1 2.05787 16.8704 -23.5516
12 1 1.34249 17.3361 -24.0268
13 1 0.464971 17.6664 -23.9977
14 1 0.597605 18.5034 -23.6653
15 1 1.22283 18.4109 -24.3536
16 1 1.84642 19.0126 -24.5698
17 1 2.73078 19.1237 -24.9405
18 1 3.09571 19.9905 -25.0702
19 1 3.65475 20.6313 -24.66
20 1 3.38671 21.1358 -23.8538
21 1 3.51717 22.083 -23.5884
22 1 3.2403 22.8347 -22.9836
23 1 3.50545 22.0619 -22.4725
24 1 4.21785 22.5223 -22.1806
25 1 4.76045 23.1408 -22.5648
26 1 4.93589 23.7221 -23.3607
27 1 5.31311 22.907 -23.3965
28 1 5.94392 22.3129 -23.1128
29 1 6.38389 22.3249 -22.2977
30 1 6.5824 21.462 -22.5408
31 1 5.94819 20.8377 -22.3799
32 1 5.38761 21.5003 -22.047
ITEM: TIMESTEP
1380000
ITEM: NUMBER OF ATOMS
32
ITEM: BOX BOUNDS mm mm mm
-1.6000000000000000e+01 1.6000000000000000e+01
-1.6000000000000000e+01 2.2287677874323677e+01
-2.7791567806750781e+01 1.6000000000000000e+01
ITEM: ATOMS id type x y z
1 1 7.86362 16.944 -25.7012
2 1 7.33649 17.5869 -26.0976
3 1 6.72013 17.2017 -25.5188
4 1 5.85801 16.7658 -25.3751
5 1 5.30477 16.2904 -24.8117
6 1 6.03687 15.9605 -24.3036
7 1 6.45014 16.6688 -23.8548
8 1 5.72972 17.326 -23.7331
9 1 6.03794 18.1891 -23.8446
10 1 6.55583 17.7655 -24.4857
11 1 7.25557 18.0597 -23.8947
12 1 7.88102 17.3788 -23.5725
13 1 8.3548 17.2235 -24.3861
14 1 8.88678 18.0314 -24.5759
15 1 9.33372 18.8564 -24.9969
16 1 9.76861 19.4046 -25.7055
17 1 9.41629 19.4808 -26.5533
18 1 9.65778 20.0041 -27.3105
19 1 9.46709 20.9302 -27.4805
20 1 9.32001 21.6425 -26.9334
21 1 9.30627 22.1126 -27.72
22 1 8.42159 22.2845 -27.7881
23 1 8.33109 22.2414 -26.8475
24 1 8.2798 22.1546 -25.9331
25 1 7.57849 21.5154 -25.8224
26 1 7.02805 21.7194 -25.0552
27 1 6.22989 21.2969 -24.8533
28 1 5.35842 21.2826 -24.3554
29 1 5.49217 21.9265 -23.6338
30 1 5.07102 22.0081 -22.7881
31 1 5.55855 21.669 -21.998
32 1 5.21133 20.9486 -22.4861
ITEM: TIMESTEP
1390000
ITEM: NUMBER OF ATOMS
32
ITEM: BOX BOUNDS mm mm mm
-1.6000000000000000e+01 1.6000000000000000e+01
-1.6000000000000000e+01 1.9778464707397067e+01
-2.8167753677037194e+01 1.6000000000000000e+01
ITEM: ATOMS id type x y z
1 1 12.1064 13.0973 -25.1036
2 1 11.8061 12.9932 -25.9854
3 1 11.9077 13.836 -26.4302
4 1 12.4378 14.6044 -26.7348
5 1 12.083 15.2734 -27.2279
6 1 11.8607 15.7165 -27.9893
7 1 11.6782 16.6625 -28.1642
8 1 11.0554 16.7808 -27.5089
9 1 10.9923 16.2891 -26.7278
10 1 10.0966 16.2892 -26.6567
11 1 9.9162 15.5023 -26.1225
12 1 10.7286 15.1923 -26.4746
13 1 11.1273 15.2369 -25.6402
14 1 12.0624 15.2007 -25.9071
15 1 12.8081 15.7364 -25.5688
16 1 13.0933 16.6268 -25.8931
17 1 12.2781 16.862 -25.5203
18 1 11.5172 16.6984 -24.8378
19 1 10.6261 16.6709 -25.0654
20 1 10.4371 17.628 -24.8843
21 1 10.6343 17.4225 -23.974
22 1 10.2136 18.0706 -23.3924
23 1 9.8818 18.8488 -22.9243
24 1 10.2052 19.728 -22.9193
25 1 10.0488 19.7753 -21.9554
26 1 9.33641 19.7 -21.3011
27 1 8.70281 19.1835 -21.8351
28 1 9.22947 18.4935 -21.4582
29 1 8.36053 18.2417 -21.2833
30 1 8.22346 17.8604 -22.1543
31 1 8.06222 17.0134 -22.5074
32 1 8.89022 16.4949 -22.4951
ITEM: TIMESTEP
1400000
ITEM: NUMBER OF ATOMS
32
ITEM: BOX BOUNDS mm mm mm
-1.6000000000000000e+01 1.6000000000000000e+01
-1.6000000000000000e+01 1.6000000000000000e+01
-2.6602310478058293e+01 1.6000000000000000e+01
ITEM: ATOMS id type x y z
1 1 13.3937 10.9778 -24.6885
2 1 13.4982 10.0731 -24.9462
3 1 13.2397 9.85737 -24.0383
4 1 13.613 9.00094 -23.7073
5 1 14.2591 8.43426 -23.3111
6 1 14.2436 8.96375 -22.5321
7 1 14.3536 9.04163 -21.5774
8 1 13.4202 9.1401 -21.7999
9 1 12.7452 9.71037 -22.2048
10 1 12.0139 9.70459 -22.8382
11 1 11.4193 10.4473 -22.9935
12 1 11.5327 11.3804 -23.3201
13 1 10.901 11.4293 -24.0047
14 1 10.2005 11.0747 -24.518
15 1 10.0855 11.292 -25.4265
16 1 10.3392 11.6073 -26.343
17 1 10.2706 12.4202 -25.7081
18 1 10.5424 12.5205 -24.8059
19 1 10.9329 12.8752 -24.1093
20 1 10.7821 13.4644 -23.3509
21 1 10.9857 14.2984 -23.7563
22 1 10.7852 15.0175 -24.3509
23 1 9.90941 14.9408 -24.8461
24 1 9.48546 14.1173 -24.8726
25 1 9.0597 14.2911 -25.7352
26 1 8.47315 15.0204 -25.8238
27 1 7.98536 15.2913 -26.5988
28 1 7.07318 15.5589 -26.5324
29 1 6.81982 15.9231 -25.6904
30 1 6.10553 15.3976 -25.4121
31 1 5.28937 15.4205 -25.0174
32 1 5.3675 14.7147 -25.6043
ITEM: TIMESTEP
1410000
ITEM: NUMBER OF ATOMS
32
ITEM: BOX BOUNDS mm mm mm
-1.6000000000000000e+01 1.6000000000000000e+01
-1.6000000000000000e+01 2.0287443176556764e+01
-2.2058435379939329e+01 1.6000000000000000e+01
ITEM: ATOMS id type x y z
1 1 15.6141 10.1069 -20.0698
2 1 14.9556 10.6539 -19.6411
3 1 15.4478 11.4561 -19.8377
4 1 14.8738 12.2435 -19.6878
5 1 14.6168 12.7306 -20.4333
6 1 14.2361 12.5076 -21.2494
7 1 13.5175 11.9198 -21.2743
8 1 13.2097 12.8038 -20.9124
9 1 12.8307 13.5221 -20.4665
10 1 11.9494 13.341 -20.1894
11 1 12.1468 14.1558 -19.8514
12 1 11.403 14.0543 -19.2423
13 1 11.1073 14.8037 -19.63
14 1 10.9348 14.3305 -20.4251
15 1 10.2339 14.9049 -20.5457
16 1 9.4253 14.6209 -21.023
17 1 8.57033 14.4464 -21.3399
18 1 7.62058 14.319 -21.4216
19 1 7.86871 15.2281 -21.4173
20 1 7.39491 16.007 -21.2526
21 1 8.17163 16.511 -21.4134
22 1 9.05303 16.8151 -21.1561
23 1 9.13929 17.2494 -20.3491
24 1 8.95989 18.0844 -19.9332
25 1 9.27837 18.8244 -20.4397
26 1 8.75284 19.5385 -20.7009
27 1 8.12734 19.1231 -21.2538
28 1 7.31037 19.5047 -20.7982
29 1 6.57984 20.0775 -21.0319
30 1 5.84906 19.6576 -20.6682
31 1 5.38242 20.2842 -21.2099
32 1 5.18447 19.9079 -22.0549
ITEM: TIMESTEP
1420000
ITEM: NUMBER OF ATOMS
32
ITEM: BOX BOUNDS mm mm mm
-1.6000000000000000e+01 1.6000000000000000e+01
-1.6000000000000000e+01 1.6000000000000000e+01
-1.9717479155782641e+01 1.6000000000000000e+01
ITEM: ATOMS id type x y z
1 1 15.8708 12.9328 -16.3273
2 1 15.4434 12.2129 -15.8895
3 1 15.2413 12.3323 -14.9642
4 1 14.7236 13.1864 -14.9576
5 1 13.8719 13.5075 -15.3477
6 1 13.7286 14.4354 -15.4945
7 1 12.9963 14.6393 -16.0843
8 1 12.8737 14.6933 -16.9785
9 1 13.3763 14.0533 -17.4171
10 1 14.1156 14.6391 -17.4487
11 1 14.1624 13.8695 -18.0493
12 1 15.0719 13.7142 -17.9827
13 1 15.4993 13.5707 -18.81
14 1 14.6406 14.0397 -18.9147
15 1 14.2573 13.7644 -19.714
16 1 14.0608 12.8064 -19.6839
17 1 13.711 12.0388 -19.2534
18 1 13.0199 11.8748 -18.5904
19 1 12.4494 11.5661 -17.84
20 1 12.0016 10.807 -18.14
21 1 12.3212 9.96046 -18.092
22 1 11.4223 10.0108 -18.402
23 1 10.9734 10.2012 -17.6387
24 1 10.6298 10.9356 -17.1984
25 1 10.0015 11.5847 -17.0729
26 1 9.36492 12.0822 -16.5337
27 1 8.59606 11.6314 -16.6965
28 1 8.314 12.1005 -17.4315
29 1 7.48679 11.6091 -17.3397
30 1 6.74108 12.1513 -17.5953
31 1 5.8178 12.4679 -17.8931
32 1 5.93172 12.5939 -18.7985