ITEM: TIMESTEP
3220000
ITEM: NUMBER OF ATOMS
32
ITEM: BOX BOUNDS mm mm mm
-2.1270856671412730e+01 1.6000000000000000e+01
-1.6000000000000000e+01 4.1503841375392447e+01
-3.2233326686651630e+01 1.6000000000000000e+01
ITEM: ATOMS id type x y z
1 1 -21.2671 32.1249 -23.9139
2 1 -20.5633 32.1055 -24.5669
3 1 -20.5011 31.9989 -25.51
4 1 -20.0203 31.5596 -26.1894
5 1 -19.2766 32.1914 -26.1725
6 1 -18.8841 33.0095 -25.902
7 1 -18.3129 33.5338 -26.4985
8 1 -17.8521 33.9646 -27.1694
9 1 -17.7078 34.699 -27.8084
10 1 -17.8948 35.5357 -28.3157
11 1 -17.955 35.9264 -29.1586
12 1 -18.2545 36.3223 -29.8953
13 1 -18.4282 36.9444 -29.2529
14 1 -18.4381 37.8253 -29.0878
15 1 -17.861 38.6106 -29.1587
16 1 -17.5016 39.1457 -29.8521
17 1 -16.5749 39.2202 -29.8317
18 1 -15.6743 38.858 -29.7021
19 1 -15.2764 38.1194 -29.3857
20 1 -15.0091 37.8644 -30.27
21 1 -14.7997 37.2571 -30.9242
22 1 -14.0228 37.0875 -31.4229
23 1 -13.3313 36.5998 -31.7997
24 1 -12.4195 36.5536 -31.4568
25 1 -12.5108 37.482 -31.7774
26 1 -12.378 38.3259 -32.2285
27 1 -12.5653 38.9935 -31.5515
28 1 -12.3649 39.5129 -30.7863
29 1 -11.8217 39.9518 -30.1518
30 1 -11.4129 40.5214 -29.5094
31 1 -11.6024 41.2218 -28.9513
32 1 -11.9764 41.4981 -28.169
ITEM: TIMESTEP
3230000
ITEM: NUMBER OF ATOMS
32
ITEM: BOX BOUNDS mm mm mm
-1.6000000000000000e+01 1.6000000000000000e+01
-1.6000000000000000e+01 4.0654524509718826e+01
-3.7797008053930305e+01 1.6000000000000000e+01
ITEM: ATOMS id type x y z
1 1 -12.5052 27.2385 -26.4653
2 1 -13.3656 27.5311 -26.7903
3 1 -13.9204 27.8525 -27.4973
4 1 -14.3716 28.5182 -28.0452
5 1 -14.8857 28.5864 -28.8416
6 1 -15.3026 28.4475 -29.66
7 1 -15.7504 28.3371 -30.4551
8 1 -15.4211 28.2519 -31.3107
9 1 -14.8492 28.0082 -32.0421
10 1 -14.6042 27.5683 -32.8544
11 1 -14.2017 27.6118 -33.7045
12 1 -14.1259 28.0503 -34.4944
13 1 -13.6677 28.4437 -35.2562
14 1 -13.1352 29.2117 -35.3801
15 1 -12.8273 30.0657 -35.5597
16 1 -12.4416 30.913 -35.4142
17 1 -12.2949 31.7943 -35.5888
18 1 -11.9272 32.1706 -36.3559
19 1 -11.6152 32.8372 -36.9753
20 1 -11.179 33.3966 -37.5109
21 1 -10.7066 34.1312 -37.8147
22 1 -10.1026 34.8205 -37.7989
23 1 -9.9336 35.5036 -37.1141
24 1 -9.95428 36.3794 -37.3987
25 1 -10.5824 37.0861 -37.3877
26 1 -11.4502 37.4334 -37.5888
27 1 -12.2024 37.7072 -37.0515
28 1 -12.7643 37.8972 -36.3672
29 1 -13.147 38.4522 -35.7022
30 1 -12.9282 39.1109 -35.0135
31 1 -13.0083 39.7695 -34.4232
32 1 -12.7496 40.6517 -34.5229
ITEM: TIMESTEP
3240000
ITEM: NUMBER OF ATOMS
32
ITEM: BOX BOUNDS mm mm mm
-1.6820693810396257e+01 1.6000000000000000e+01
-1.6000000000000000e+01 3.8735726255591388e+01
-3.6792406548315796e+01 1.6000000000000000e+01
ITEM: ATOMS id type x y z
1 1 -16.888 26.9838 -33.0192
2 1 -16.3637 27.6912 -33.2839
3 1 -15.772 28.4824 -33.0897
4 1 -15.0559 29.0013 -32.976
5 1 -14.3836 29.6613 -32.9309
6 1 -13.5581 29.6954 -33.3942
7 1 -13.007 30.4403 -33.6339
8 1 -12.2511 30.7936 -33.2312
9 1 -11.4183 31.1839 -33.0323
10 1 -10.9331 31.9024 -32.7281
11 1 -10.9596 32.8944 -32.7861
12 1 -10.7616 33.8218 -32.6272
13 1 -10.6492 34.6945 -32.8334
14 1 -9.86158 35.0979 -33.1691
15 1 -9.3963 35.7332 -33.6806
16 1 -9.45395 35.9996 -34.5678
17 1 -9.19472 36.5134 -35.4102
18 1 -9.20486 36.7296 -36.3116
19 1 -9.76378 37.3511 -36.7266
20 1 -10.6789 37.7391 -36.767
21 1 -11.5587 37.6798 -36.2694
22 1 -11.1882 37.5507 -35.3728
23 1 -11.42 37.2483 -34.4906
24 1 -11.8256 36.5043 -33.981
25 1 -12.4301 36.3816 -33.2214
26 1 -13.0009 36.3841 -32.4894
27 1 -13.3739 36.9667 -31.8293
28 1 -14.0995 37.415 -31.5717
29 1 -14.644 37.7523 -30.9111
30 1 -15.2816 38.3593 -30.6789
31 1 -15.9921 38.9229 -31.1146
32 1 -16.3505 38.573 -31.8751
ITEM: TIMESTEP
3250000
ITEM: NUMBER OF ATOMS
32
ITEM: BOX BOUNDS mm mm mm
-2.0823971897323940e+01 1.6000000000000000e+01
-1.6000000000000000e+01 3.9216106435778507e+01
-3.8494044871709001e+01 1.6000000000000000e+01
ITEM: ATOMS id type x y z
1 1 -14.3166 28.5711 -37.6605
2 1 -14.2898 29.3104 -37.0859
3 1 -14.9427 29.5653 -36.4913
4 1 -15.3277 29.8524 -35.6995
5 1 -15.8361 30.1666 -34.9431
6 1 -16.4296 30.4114 -34.2425
7 1 -17.2716 30.8625 -34.2598
8 1 -17.9379 31.504 -34.5001
9 1 -18.3584 32.3474 -34.4991
10 1 -18.997 32.9896 -34.3527
11 1 -19.9359 33.2584 -34.5133
12 1 -20.6647 33.3147 -35.0776
13 1 -20.8078 34.1395 -35.4434
14 1 -20.7221 34.9768 -35.0541
15 1 -20.8797 35.7376 -34.4301
16 1 -20.0694 35.578 -34.1186
17 1 -19.614 36.3915 -34.1174
18 1 -19.1938 37.2427 -34.2789
19 1 -18.2525 37.5031 -34.0135
20 1 -17.3512 37.5047 -34.1858
21 1 -17.239 38.4343 -34.2541
22 1 -16.7933 39.191 -34.0029
23 1 -15.8858 39.023 -33.9653
24 1 -15.0457 38.8919 -34.3458
25 1 -14.6287 38.2552 -34.9551
26 1 -14.4076 38.2657 -35.9244
27 1 -14.2359 38.2889 -36.8163
28 1 -14.3289 38.2639 -37.7615
29 1 -14.3925 37.4788 -38.3745
30 1 -14.2609 36.5858 -38.3607
31 1 -13.9253 35.6784 -38.433
32 1 -14.0875 34.817 -37.9532
ITEM: TIMESTEP
3260000
ITEM: NUMBER OF ATOMS
32
ITEM: BOX BOUNDS mm mm mm
-2.3790956095538014e+01 1.6000000000000000e+01
-1.6000000000000000e+01 4.1904322137892756e+01
-4.1841649639973383e+01 1.6000000000000000e+01
ITEM: ATOMS id type x y z
1 1 -16.827 34.5441 -37.3262
2 1 -16.8439 34.8837 -36.4323
3 1 -17.5006 34.9436 -35.823
4 1 -17.9403 34.6873 -35.0048
5 1 -18.4166 33.9804 -34.6284
6 1 -18.1506 33.5885 -35.4519
7 1 -18.1636 33.7193 -36.3551
8 1 -18.0088 34.1504 -37.143
9 1 -17.8692 34.3767 -38.0277
10 1 -17.826 34.3107 -38.9421
11 1 -17.5249 33.669 -39.6604
12 1 -17.8189 33.5091 -40.5677
13 1 -18.2495 34.2378 -40.9773
14 1 -18.4158 34.9861 -41.5075
15 1 -19.0092 35.6251 -41.8209
16 1 -19.0997 35.5684 -40.9262
17 1 -19.2523 34.8527 -40.3743
18 1 -19.698 34.1219 -39.9678
19 1 -20.5287 33.6591 -39.9082
20 1 -20.9906 33.4655 -39.0648
21 1 -21.6078 33.2215 -38.4572
22 1 -22.2575 33.6358 -37.8963
23 1 -22.5468 34.2653 -37.2304
24 1 -22.573 35.1913 -36.9734
25 1 -23.0236 36.0202 -36.782
26 1 -23.2167 36.633 -36.1074
27 1 -23.5343 37.4174 -35.718
28 1 -23.6531 38.2685 -36.1065
29 1 -23.663 39.2046 -35.9099
30 1 -23.7763 40.0728 -36.3042
31 1 -23.6229 40.9503 -36.2481
32 1 -23.3452 41.8872 -36.4868
ITEM: TIMESTEP
3270000
ITEM: NUMBER OF ATOMS
32
ITEM: BOX BOUNDS mm mm mm
-2.5619484281387532e+01 1.6000000000000000e+01
-1.6000000000000000e+01 4.1867693091652313e+01
-3.8668109099908158e+01 1.6000000000000000e+01
ITEM: ATOMS id type x y z
1 1 -15.597 34.2822 -33.9622
2 1 -14.9165 34.8431 -34.1344
3 1 -14.6162 35.2438 -34.9299
4 1 -14.8653 35.8579 -35.5657
5 1 -15.3699 36.509 -35.9679
6 1 -15.681 37.3814 -36.1841
7 1 -15.4653 38.2692 -36.2093
8 1 -14.9379 38.7764 -36.7756
9 1 -15.4072 39.0426 -37.4983
10 1 -15.5108 39.5777 -38.2613
11 1 -16.2567 38.9794 -38.3038
12 1 -16.9891 38.4567 -37.9236
13 1 -17.7614 38.3653 -38.3922
14 1 -18.7014 38.1186 -38.5113
15 1 -19.1737 38.6337 -37.8149
16 1 -19.9632 39.009 -37.4931
17 1 -20.8943 39.1534 -37.599
18 1 -21.0387 40.0333 -37.8341
19 1 -20.8337 40.9309 -38.1307
20 1 -20.8426 41.6385 -38.7433
21 1 -21.4399 41.8627 -38.0794
22 1 -21.7718 41.6082 -37.2352
23 1 -21.7324 41.5253 -36.3442
24 1 -21.6868 41.347 -35.4408
25 1 -21.2602 40.8654 -34.7613
26 1 -21.5087 40.9179 -33.9001
27 1 -22.0331 40.7996 -33.1276
28 1 -22.8326 40.4296 -32.7608
29 1 -23.6511 39.95 -32.7056
30 1 -24.173 39.1722 -33.0116
31 1 -24.7601 38.5546 -33.4128
32 1 -25.4735 38.2832 -32.7844
ITEM: TIMESTEP
3280000
ITEM: NUMBER OF ATOMS
32
ITEM: BOX BOUNDS mm mm mm
-2.7823575341835909e+01 1.6000000000000000e+01
-1.6000000000000000e+01 4.5683073183426778e+01
-3.8364116384502481e+01 1.6000000000000000e+01
ITEM: ATOMS id type x y z
1 1 -10.3621 42.9869 -38.2299
2 1 -10.4584 43.5034 -37.4167
3 1 -10.3852 43.8565 -36.4716
4 1 -9.99116 44.5143 -35.8631
5 1 -9.766 45.0044 -35.1187
6 1 -10.5239 45.438 -34.6745
7 1 -11.4159 45.5723 -34.4097
8 1 -12.3066 45.776 -34.5196
9 1 -13.0473 45.4323 -35.1102
10 1 -13.6918 44.7285 -35.3589
11 1 -14.596 44.9933 -35.2628
12 1 -15.3869 44.9755 -34.8102
13 1 -16.1222 45.0998 -35.3727
14 1 -17.0788 45.289 -35.4825
15 1 -17.9967 45.2871 -35.3157
16 1 -18.2824 44.4696 -35.7004
17 1 -18.9668 43.8101 -35.5813
18 1 -19.7989 43.6602 -36.0422
19 1 -19.813 42.7645 -35.9434
20 1 -19.7211 41.903 -35.4255
21 1 -19.8976 41.5229 -34.5625
22 1 -19.8348 41.2485 -33.6997
23 1 -20.6051 40.9538 -33.2495
24 1 -21.5312 40.851 -33.1388
25 1 -22.0165 40.0536 -33.0587
26 1 -22.9331 39.7809 -32.9429
27 1 -23.8306 39.8047 -32.7266
28 1 -24.744 39.9444 -32.8365
29 1 -25.2095 39.2168 -32.6094
30 1 -25.8457 38.5579 -32.465
31 1 -26.7494 38.4043 -32.3728
32 1 -27.637 38.8281 -32.2194
ITEM: TIMESTEP
3290000
ITEM: NUMBER OF ATOMS
32
ITEM: BOX BOUNDS mm mm mm
-2.3048098999613657e+01 1.6000000000000000e+01
-1.6000000000000000e+01 5.0651488540113455e+01
-3.6476573649738299e+01 1.6000000000000000e+01
ITEM: ATOMS id type x y z
1 1 -15.0058 50.3532 -36.5443
2 1 -15.1567 50.3265 -35.6089
3 1 -14.8044 49.6133 -35.08
4 1 -14.1226 48.8928 -35.0923
5 1 -13.5213 48.2517 -35.2464
6 1 -13.0097 47.5862 -34.8903
7 1 -12.5143 47.0281 -34.3661
8 1 -12.3794 46.9225 -33.4241
9 1 -13.0541 47.6341 -33.4227
10 1 -13.9632 47.6638 -33.6746
11 1 -14.7733 47.4059 -34.0815
12 1 -14.7714 46.5131 -33.8507
13 1 -14.6405 45.7886 -33.2798
14 1 -15.1152 45.0264 -32.8727
15 1 -15.3459 44.1556 -33.031
16 1 -15.7567 43.3862 -32.7102
17 1 -16.3804 42.6589 -32.6592
18 1 -17.0004 42.0651 -33.0386
19 1 -17.5946 41.433 -33.4504
20 1 -18.4865 41.1936 -33.7231
21 1 -19.2631 41.4674 -34.1366
22 1 -20.082 41.9348 -33.7389
23 1 -20.7239 42.6013 -33.6491
24 1 -21.5571 42.6938 -34.1468
25 1 -22.4269 43.0272 -34.2923
26 1 -23.0774 43.7537 -34.2137
27 1 -22.6419 44.4795 -34.5541
28 1 -22.2646 45.2877 -34.8842
29 1 -21.7086 45.8835 -35.3381
30 1 -21.2611 46.6458 -35.691
31 1 -20.3948 47.063 -35.7366
32 1 -19.4711 47.3115 -35.5082
ITEM: TIMESTEP
3300000
ITEM: NUMBER OF ATOMS
32
ITEM: BOX BOUNDS mm mm mm
-2.2752374660468252e+01 1.6000000000000000e+01
-1.6000000000000000e+01 5.4713133564634020e+01
-3.1376235181594250e+01 1.6000000000000000e+01
ITEM: ATOMS id type x y z
1 1 -17.7593 54.7168 -30.0248
2 1 -17.2821 53.9516 -30.3284
3 1 -17.6122 53.1471 -30.4712
4 1 -17.9008 52.2133 -30.3222
5 1 -18.4325 51.8685 -31.0448
6 1 -18.4836 50.9465 -31.1086
7 1 -18.8622 50.1382 -31.4289
8 1 -18.7259 49.2736 -31.0394
9 1 -18.7436 48.3566 -30.8346
10 1 -18.8224 47.6688 -30.1985
11 1 -18.6144 46.7965 -29.847
12 1 -18.4126 45.913 -29.6849
13 1 -18.3734 44.9739 -29.7593
14 1 -17.9402 44.1858 -29.7194
15 1 -17.8833 43.3827 -30.1776
16 1 -18.1447 43.0989 -31.0493
17 1 -19.0895 43.041 -30.9184
18 1 -19.8995 43.4716 -30.8975
19 1 -20.6679 43.5111 -30.2882
20 1 -21.5425 43.3423 -29.9984
21 1 -22.2933 43.5074 -30.4696
22 1 -22.7968 44.1982 -30.9058
23 1 -22.5152 44.7825 -30.2943
24 1 -22.7484 45.4421 -29.597
25 1 -22.256 45.8709 -28.9433
26 1 -21.8685 46.505 -28.3869
27 1 -21.1258 46.4765 -27.8395
28 1 -21.0535 46.1857 -26.9553
29 1 -20.7583 45.7342 -26.2146
30 1 -20.8921 45.2144 -25.4148
31 1 -20.4443 45.5414 -24.6599
32 1 -19.6459 45.4256 -25.125
ITEM: TIMESTEP
3310000
ITEM: NUMBER OF ATOMS
32
ITEM: BOX BOUNDS mm mm mm
-2.2756827137549287e+01 1.6000000000000000e+01
-1.6000000000000000e+01 5.2075241184901166e+01
-3.8451952050578114e+01 1.6000000000000000e+01
ITEM: ATOMS id type x y z
1 1 -15.3366 52.0955 -38.483
2 1 -15.7933 51.2849 -38.1637
3 1 -16.5298 51.6367 -37.625
4 1 -17.167 51.9662 -36.9399
5 1 -17.8639 51.6764 -36.3539
6 1 -18.5365 51.5187 -35.7478
7 1 -19.124 51.3334 -35.0642
8 1 -19.6295 50.5952 -34.8374
9 1 -19.7372 49.6863 -34.5033
10 1 -19.3268 48.8822 -34.4278
11 1 -19.9653 48.2073 -34.1781
12 1 -20.8116 48.2066 -33.7933
13 1 -21.5865 48.4266 -33.3459
14 1 -22.3635 48.5819 -32.8712
15 1 -22.7101 48.9057 -32.0852
16 1 -22.7709 49.3668 -31.2971
17 1 -22.0829 49.4461 -30.6731
18 1 -21.4719 49.5175 -29.9353
19 1 -21.1856 49.9429 -29.1768
20 1 -20.5452 50.3328 -28.6923
21 1 -20.1708 50.817 -28.0029
22 1 -19.898 51.2001 -27.1315
23 1 -19.6656 50.8131 -26.2669
24 1 -18.7455 50.6666 -26.1365
25 1 -17.9786 50.082 -26.0785
26 1 -17.1906 49.6682 -25.7661
27 1 -16.4487 49.1932 -25.4123
28 1 -15.8274 49.1025 -24.7374
29 1 -15.363 49.6078 -24.1404
30 1 -14.6381 49.9632 -23.6082
31 1 -13.809 50.1223 -23.2242
32 1 -13.5228 51.0844 -23.0915
ITEM: TIMESTEP
3320000
ITEM: NUMBER OF ATOMS
32
ITEM: BOX BOUNDS mm mm mm
-2.1964914863580191e+01 1.6000000000000000e+01
-1.6000000000000000e+01 5.5107319008752370e+01
-3.3906004223948216e+01 1.6000000000000000e+01
ITEM: ATOMS id type x y z
1 1 -21.8603 55.3869 -33.3972
2 1 -20.9554 55.5932 -33.4966
3 1 -20.0626 55.3637 -33.2339
4 1 -19.1964 54.9182 -33.0823
5 1 -18.8601 54.2006 -33.6302
6 1 -18.92 53.2527 -33.6088
7 1 -18.7436 52.3313 -33.451
8 1 -18.6378 51.4288 -33.1957
9 1 -18.8597 50.5324 -32.989
10 1 -19.6012 50.0751 -32.6585
11 1 -19.6562 49.2798 -32.1528
12 1 -19.557 48.3799 -31.9925
13 1 -20.1838 47.7335 -32.2128
14 1 -20.7505 47.2587 -31.6956
15 1 -20.6481 46.3687 -31.4726
16 1 -19.9751 45.8002 -31.1075
17 1 -19.0613 45.6375 -31.0831
18 1 -18.1188 45.7483 -31.0654
19 1 -17.7312 44.9175 -30.727
20 1 -17.3096 44.2456 -30.1432
21 1 -16.7693 43.9532 -29.4554
22 1 -15.9467 43.6529 -29.1382
23 1 -15.2981 43.1038 -28.7904
24 1 -14.8133 42.7443 -28.1094
25 1 -14.1394 42.2769 -27.5522
26 1 -13.2565 42.3936 -27.3691
27 1 -12.4465 42.7877 -27.0371
28 1 -11.8172 42.2494 -26.5446
29 1 -11.2233 41.5345 -26.826
30 1 -11.4375 41.0635 -27.5996
31 1 -11.0936 40.3084 -28.0438
32 1 -10.4081 40.0325 -28.6028
ITEM: TIMESTEP
3330000
ITEM: NUMBER OF ATOMS
32
ITEM: BOX BOUNDS mm mm mm
-2.2691462304757952e+01 1.6000000000000000e+01
-1.6000000000000000e+01 5.6089816957499025e+01
-3.5259994380678577e+01 1.6000000000000000e+01
ITEM: ATOMS id type x y z
1 1 -22.5883 52.4382 -30.4357
2 1 -22.3756 53.3095 -30.4127
3 1 -22.6427 54.2131 -30.6447
4 1 -22.6036 55.2165 -30.8571
5 1 -21.8444 55.1939 -31.398
6 1 -21.3799 55.9933 -31.3098
7 1 -20.7526 56.1431 -32.0069
8 1 -20.1508 55.6879 -32.638
9 1 -19.5953 55.6604 -33.3756
10 1 -19.1076 55.6354 -34.1863
11 1 -18.3023 55.7713 -33.7294
12 1 -17.7861 55.3466 -33.0391
13 1 -16.9541 54.921 -33.05
14 1 -16.5743 54.5657 -33.8448
15 1 -16.3148 54.2419 -34.6807
16 1 -16.5846 53.3984 -34.9783
17 1 -16.9264 52.5742 -35.2435
18 1 -17.7366 52.2154 -34.9063
19 1 -18.4442 51.5811 -34.7713
20 1 -18.6704 50.633 -34.6862
21 1 -18.8089 49.6965 -34.5596
22 1 -18.3032 48.9838 -34.8416
23 1 -18.4267 48.5812 -34.0192
24 1 -19.0642 48.4218 -33.3363
25 1 -19.5362 48.3394 -32.4517
26 1 -19.3806 48.6699 -31.5349
27 1 -19.5567 48.7188 -30.6082
28 1 -19.7082 48.1404 -29.9605
29 1 -19.8018 47.7056 -29.1949
30 1 -19.7798 46.7832 -28.9237
31 1 -19.4389 45.9723 -28.5944
32 1 -19.9352 45.5295 -27.9642
ITEM: TIMESTEP
3340000
ITEM: NUMBER OF ATOMS
32
ITEM: BOX BOUNDS mm mm mm
-2.5963730131322698e+01 1.6000000000000000e+01
-1.6000000000000000e+01 5.5844616569303277e+01
-3.7285016329580117e+01 1.6000000000000000e+01
ITEM: ATOMS id type x y z
1 1 -24.4118 51.2198 -27.9065
2 1 -23.6816 50.9146 -28.3911
3 1 -22.7444 50.8427 -28.6671
4 1 -22.0376 51.3498 -29.0521
5 1 -21.3066 51.6111 -29.6447
6 1 -20.4137 51.6349 -29.9541
7 1 -19.7346 52.332 -29.9183
8 1 -19.8092 52.1666 -30.814
9 1 -20.0248 53.0294 -30.9963
10 1 -20.0514 53.8261 -31.4685
11 1 -19.8173 54.7403 -31.3762
12 1 -19.6871 55.5544 -31.7897
13 1 -20.4685 55.9561 -32.1298
14 1 -20.9325 55.5396 -32.8057
15 1 -21.6949 55.1051 -33.1117
16 1 -22.5873 55.0608 -32.8674
17 1 -23.4339 54.66 -33.021
18 1 -24.1228 54.1068 -33.4511
19 1 -24.8016 53.6807 -33.9941
20 1 -25.4893 52.9818 -34.2346
21 1 -25.9198 52.1393 -34.1758
22 1 -25.8216 51.3766 -34.6475
23 1 -25.1344 50.6323 -34.8547
24 1 -24.3427 50.127 -35.0253
25 1 -23.7373 49.4969 -35.2782
26 1 -22.9978 49.1612 -34.8485
27 1 -22.1395 49.1436 -35.2472
28 1 -21.4768 48.592 -35.7103
29 1 -20.611 48.2717 -36.0083
30 1 -19.9052 48.4286 -36.6517
31 1 -19.4346 48.9165 -37.2965
32 1 -18.831 49.6418 -37.4703
ITEM: TIMESTEP
3350000
ITEM: NUMBER OF ATOMS
32
ITEM: BOX BOUNDS mm mm mm
-2.4815432947769505e+01 1.6000000000000000e+01
-1.6000000000000000e+01 5.5038319543634813e+01
-3.6317963570803691e+01 1.6000000000000000e+01
ITEM: ATOMS id type x y z
1 1 -22.5823 55.0946 -21.3297
2 1 -23.27 54.9838 -22.0444
3 1 -23.8272 54.7951 -22.7652
4 1 -24.1227 54.4549 -23.6276
5 1 -23.8858 53.9394 -24.3025
6 1 -24.0343 54.1728 -25.1753
7 1 -24.2472 54.1919 -26.1005
8 1 -24.6969 54.2965 -26.9264
9 1 -24.7602 53.7188 -27.5911
10 1 -24.5499 53.013 -28.2119
11 1 -23.7281 53.0894 -28.6419
12 1 -22.7853 53.2532 -28.8384
13 1 -22.2861 52.6924 -29.407
14 1 -22.4494 52.849 -30.3291
15 1 -22.6772 52.6401 -31.2137
16 1 -22.4696 52.195 -32.0124
17 1 -22.307 51.8223 -32.9088
18 1 -22.4752 51.0016 -33.3857
19 1 -22.1324 50.2572 -33.7697
20 1 -21.665 49.525 -34.179
21 1 -21.1213 49.0984 -34.8822
22 1 -20.285 48.7633 -34.5958
23 1 -19.5398 48.272 -34.8799
24 1 -18.6482 47.9281 -34.8231
25 1 -17.8206 47.6144 -34.5635
26 1 -16.8852 47.6002 -34.5145
27 1 -15.9737 47.8506 -34.703
28 1 -15.4583 47.997 -35.5052
29 1 -14.7903 48.4989 -35.9743
30 1 -15.2099 49.1474 -36.4267
31 1 -15.4605 50.0382 -36.2338
32 1 -15.5704 50.7248 -35.5757
ITEM: TIMESTEP
3360000
ITEM: NUMBER OF ATOMS
32
ITEM: BOX BOUNDS mm mm mm
-2.1057019793337417e+01 1.6000000000000000e+01
-1.6000000000000000e+01 5.3990291983829501e+01
-4.0306993147068091e+01 1.6000000000000000e+01
ITEM: ATOMS id type x y z
1 1 -20.4249 54.4335 -26.4509
2 1 -19.7342 53.8672 -26.8551
3 1 -19.3039 53.2679 -27.4857
4 1 -19.0338 52.9554 -28.311
5 1 -18.6328 52.368 -28.9616
6 1 -18.6685 51.5199 -29.3141
7 1 -18.8771 51.0819 -30.0765
8 1 -18.9786 50.5557 -30.8603
9 1 -19.2584 50.2016 -31.6764
10 1 -19.882 51.0008 -31.796
11 1 -20.1061 51.8834 -31.5385
12 1 -20.3952 52.6808 -31.2758
13 1 -20.588 53.499 -31.6412
14 1 -20.934 53.7949 -32.4995
15 1 -20.9106 53.6897 -33.4282
16 1 -20.229 53.1762 -33.8465
17 1 -19.5819 52.4847 -33.8726
18 1 -19.2103 51.6846 -33.7608
19 1 -18.9112 50.8533 -33.4538
20 1 -18.2964 50.1097 -33.4827
21 1 -18.5477 49.2289 -33.7124
22 1 -18.5609 49.1942 -34.6673
23 1 -18.2989 48.7948 -35.5468
24 1 -18.1714 48.1091 -36.1687
25 1 -18.0681 47.874 -37.06
26 1 -18.1919 47.6613 -37.9808
27 1 -18.5181 46.8648 -38.292
28 1 -18.8815 46.0092 -38.424
29 1 -19.7791 46.1293 -38.2382
30 1 -20.5451 46.5495 -38.6821
31 1 -21.0462 46.7311 -39.4215
32 1 -20.6451 46.8301 -40.2507
ITEM: TIMESTEP
3370000
ITEM: NUMBER OF ATOMS
32
ITEM: BOX BOUNDS mm mm mm
-2.5665979148793014e+01 1.6000000000000000e+01
-1.6000000000000000e+01 5.7804039210868993e+01
-3.9254274352077374e+01 1.6000000000000000e+01
ITEM: ATOMS id type x y z
1 1 -25.5515 47.9018 -28.9411
2 1 -24.8114 48.2865 -28.5845
3 1 -24.4495 48.7796 -27.9067
4 1 -23.7124 49.0653 -27.4215
5 1 -22.9182 49.3782 -27.8299
6 1 -22.0021 49.3788 -27.675
7 1 -21.2954 49.8567 -27.1626
8 1 -20.9342 50.7087 -27.2837
9 1 -20.1694 51.0258 -27.7483
10 1 -19.9165 50.4961 -28.4412
11 1 -19.8659 49.8123 -29.1336
12 1 -19.344 49.2277 -29.611
13 1 -18.6235 49.0635 -30.2202
14 1 -17.9758 49.1867 -30.9331
15 1 -17.0849 49.0929 -30.8842
16 1 -16.718 49.5865 -31.5956
17 1 -16.0547 50.1011 -32.0417
18 1 -15.5476 50.2044 -32.7836
19 1 -15.7832 49.8718 -33.6039
20 1 -15.8696 49.5237 -34.4997
21 1 -15.3457 49.4232 -35.2387
22 1 -14.8926 50.0283 -35.9165
23 1 -14.7721 50.9291 -36.2332
24 1 -14.5723 51.7622 -36.5604
25 1 -14.6274 52.3386 -37.2833
26 1 -15.0399 53.0728 -37.686
27 1 -15.5776 53.7804 -38.1246
28 1 -16.1654 54.4595 -38.4067
29 1 -16.6748 55.2542 -38.7494
30 1 -16.6773 56.1959 -38.9818
31 1 -17.1263 56.9745 -39.2551
32 1 -17.5006 57.7834 -39.0634
ITEM: TIMESTEP
3380000
ITEM: NUMBER OF ATOMS
32
ITEM: BOX BOUNDS mm mm mm
-1.6763712648102793e+01 1.6000000000000000e+01
-1.6000000000000000e+01 5.1597133810910570e+01
-3.9501637469698181e+01 1.6000000000000000e+01
ITEM: ATOMS id type x y z
1 1 -13.5371 46.185 -27.9028
2 1 -13.7608 47.075 -27.9374
3 1 -14.2914 47.6984 -28.39
4 1 -14.9835 47.8652 -29.0179
5 1 -15.4952 48.4206 -29.5364
6 1 -15.5287 49.0691 -30.183
7 1 -15.5312 48.7827 -31.0738
8 1 -16.0289 48.1378 -31.5617
9 1 -16.3442 47.5649 -32.1968
10 1 -16.6993 46.9112 -32.756
11 1 -16.8551 46.4866 -33.6044
12 1 -16.6393 45.7799 -34.3395
13 1 -15.9455 45.2674 -34.7287
14 1 -15.2372 45.2622 -35.2849
15 1 -14.5821 45.8883 -35.4773
16 1 -13.7365 46.1807 -35.1369
17 1 -13.1263 46.8498 -35.1719
18 1 -13.1523 47.3267 -34.2632
19 1 -13.3018 48.2442 -34.0984
20 1 -13.3267 49.2025 -34.2408
21 1 -12.8625 49.9677 -34.5733
22 1 -12.527 50.4122 -35.3436
23 1 -12.2541 50.9791 -36.093
24 1 -12.1618 51.3939 -36.9198
25 1 -12.2527 51.9418 -37.729
26 1 -12.2787 51.6813 -38.6043
27 1 -11.8226 51.0502 -39.1418
28 1 -11.8212 50.1929 -38.8769
29 1 -11.5596 49.2961 -38.9308
30 1 -10.8024 49.0945 -38.3601
31 1 -10.3213 49.0629 -37.5955
32 1 -9.48587 49.0031 -37.1596
ITEM: TIMESTEP
3390000
ITEM: NUMBER OF ATOMS
32
ITEM: BOX BOUNDS mm mm mm
-1.6000000000000000e+01 1.6000000000000000e+01
-1.6000000000000000e+01 5.0573833012732415e+01
-3.5309598493542168e+01 1.6000000000000000e+01
ITEM: ATOMS id type x y z
1 1 -9.82778 46.4001 -31.397
2 1 -9.46552 45.6001 -31.8364
3 1 -9.51351 44.9478 -32.5576
4 1 -9.24643 44.1771 -32.9962
5 1 -9.69139 43.6721 -33.7515
6 1 -9.7675 42.7961 -34.1472
7 1 -10.4016 42.1268 -33.9166
8 1 -10.9438 41.3435 -33.8397
9 1 -11.6542 40.7378 -33.7856
10 1 -11.8802 40.2014 -33.0234
11 1 -12.062 39.3002 -32.907
12 1 -12.864 38.8446 -33.1354
13 1 -13.5016 39.4383 -32.9037
14 1 -14.1264 40.1371 -32.9144
15 1 -14.7853 40.5318 -32.3535
16 1 -15.6636 40.7293 -31.9955
17 1 -16.0888 41.5006 -31.6305
18 1 -15.4787 42.0748 -31.1087
19 1 -15.3127 42.9627 -31.3239
20 1 -14.6719 43.5968 -31.569
21 1 -14.8437 44.3271 -32.1602
22 1 -14.8136 44.8515 -32.9919
23 1 -14.5069 45.7094 -33.2822
24 1 -14.3377 46.4637 -33.8175
25 1 -14.2979 47.072 -34.5453
26 1 -14.1658 47.8501 -35.0652
27 1 -13.6428 48.6481 -35.0987
28 1 -12.7852 48.9631 -35.4602
29 1 -11.9047 48.9873 -35.0877
30 1 -10.9516 48.9899 -34.9131
31 1 -10.393 49.7112 -34.7343
32 1 -9.91222 50.5272 -34.726
ITEM: TIMESTEP
3400000
ITEM: NUMBER OF ATOMS
32
ITEM: BOX BOUNDS mm mm mm
-1.6102346249747157e+01 1.6000000000000000e+01
-1.6000000000000000e+01 4.6902456398669109e+01
-3.9413116730583880e+01 1.6000000000000000e+01
ITEM: ATOMS id type x y z
1 1 -7.0606 42.3896 -31.1196
2 1 -7.95268 42.7579 -31.2885
3 1 -8.83434 42.8072 -31.575
4 1 -9.631 42.3335 -31.3871
5 1 -10.4648 42.6104 -31.5927
6 1 -11.2467 43.1211 -31.5165
7 1 -11.98 43.6958 -31.2085
8 1 -12.6178 44.2288 -30.8307
9 1 -13.3203 44.5961 -30.3597
10 1 -13.9218 45.2856 -30.2001
11 1 -14.1508 46.19 -30.1669
12 1 -14.9089 46.6014 -30.6134
13 1 -15.2708 47.029 -31.4103
14 1 -14.7609 46.9846 -32.2234
15 1 -14.4064 46.8116 -33.158
16 1 -13.6998 46.7148 -33.7304
17 1 -12.872 46.666 -34.1339
18 1 -12.7108 46.4821 -35.0458
19 1 -13.3527 46.4417 -35.7336
20 1 -14.1037 46.4497 -36.2853
21 1 -14.4169 46.5836 -37.1708
22 1 -14.7196 46.2596 -38.0422
23 1 -15.0817 46.2661 -38.8617
24 1 -15.647 45.7578 -39.4416
25 1 -16.023 45.1741 -38.8193
26 1 -16.0461 44.7793 -37.9502
27 1 -16.2898 44.0184 -37.4524
28 1 -15.4556 43.62 -37.2069
29 1 -14.7595 43.1595 -36.7559
30 1 -14.3302 42.3926 -36.4815
31 1 -13.8507 41.5411 -36.7162
32 1 -14.5476 40.9569 -36.8829
ITEM: TIMESTEP
3410000
ITEM: NUMBER OF ATOMS
32
ITEM: BOX BOUNDS mm mm mm
-1.6000000000000000e+01 1.6000000000000000e+01
-1.6000000000000000e+01 5.2058552099443688e+01
-3.3722843484613513e+01 1.6000000000000000e+01
ITEM: ATOMS id type x y z
1 1 -5.86057 44.291 -22.4684
2 1 -6.20206 43.3838 -22.7925
3 1 -6.3748 42.7593 -23.5054
4 1 -6.204 41.8264 -23.5767
5 1 -6.1717 40.9594 -23.8255
6 1 -6.21885 40.5502 -24.638
7 1 -6.36303 40.3083 -25.5915
8 1 -6.87812 40.2033 -26.4143
9 1 -7.48309 40.7324 -26.8378
10 1 -8.22584 40.9078 -27.3975
11 1 -8.77019 41.5841 -27.0297
12 1 -9.4742 42.1046 -26.6753
13 1 -10.1513 42.7301 -26.5627
14 1 -10.3959 43.1903 -25.8526
15 1 -10.7501 44.0427 -25.6347
16 1 -10.8606 44.9617 -25.6287
17 1 -10.8317 45.3497 -26.4532
18 1 -11.1296 45.2554 -27.361
19 1 -11.9439 45.6064 -27.611
20 1 -12.8183 45.9208 -27.4829
21 1 -13.3442 46.6397 -27.36
22 1 -13.9176 47.0181 -28.0433
23 1 -13.6956 47.7629 -28.5642
24 1 -13.5689 48.661 -28.5964
25 1 -13.0832 49.4249 -28.8841
26 1 -12.5316 50.0913 -29.4168
27 1 -12.1005 50.5199 -30.1585
28 1 -11.613 50.8957 -30.8549
29 1 -11.5411 51.6194 -31.4299
30 1 -11.4184 51.8365 -32.329
31 1 -11.1057 51.5369 -33.2347
32 1 -10.4575 51.9735 -33.7108
ITEM: TIMESTEP
3420000
ITEM: NUMBER OF ATOMS
32
ITEM: BOX BOUNDS mm mm mm
-1.6000000000000000e+01 1.6000000000000000e+01
-1.6000000000000000e+01 5.1013334037044430e+01
-3.5475487344413949e+01 1.6000000000000000e+01
ITEM: ATOMS id type x y z
1 1 -9.67388 44.0707 -22.9303
2 1 -9.54251 43.3159 -23.4942
3 1 -9.14681 42.5631 -23.9212
4 1 -8.69046 41.8442 -24.4823
5 1 -8.48714 41.8341 -25.3845
6 1 -8.44799 41.404 -26.2596
7 1 -8.66458 40.8954 -27.0585
8 1 -8.62907 40.477 -27.8739
9 1 -9.04197 39.8741 -28.487
10 1 -8.42658 40.1996 -29.1386
11 1 -8.50875 40.7102 -29.9445
12 1 -8.67285 41.5742 -29.5064
13 1 -9.07425 42.454 -29.7066
14 1 -9.38117 43.2332 -30.0348
15 1 -10.0637 43.9032 -30.1688
16 1 -10.711 44.2972 -30.6949
17 1 -11.5149 44.1953 -31.1011
18 1 -11.9355 44.4164 -31.9306
19 1 -12.1221 43.9987 -32.769
20 1 -11.9522 43.6963 -33.7105
21 1 -12.0683 43.5497 -34.6745
22 1 -11.9943 44.3226 -35.177
23 1 -11.2724 44.9125 -35.1803
24 1 -10.71 45.6564 -35.3023
25 1 -9.95919 46.1832 -34.9986
26 1 -9.66947 47.1066 -34.7326
27 1 -9.65048 47.9902 -34.7983
28 1 -9.47291 48.5417 -33.9764
29 1 -8.87734 49.1243 -33.5747
30 1 -8.54308 49.9906 -33.7935
31 1 -7.8235 50.6304 -33.7625
32 1 -7.59795 51.4057 -34.3815
ITEM: TIMESTEP
3430000
ITEM: NUMBER OF ATOMS
32
ITEM: BOX BOUNDS mm mm mm
-1.6000000000000000e+01 1.6000000000000000e+01
-1.6000000000000000e+01 5.0665977069561031e+01
-3.2829341833561521e+01 1.6000000000000000e+01
ITEM: ATOMS id type x y z
1 1 -3.70373 43.9217 -18.1171
2 1 -3.30827 43.8156 -18.9779
3 1 -3.43152 43.5644 -19.8763
4 1 -3.77145 44.1632 -20.5649
5 1 -3.97871 45.1095 -20.8108
6 1 -4.24794 45.8477 -21.2895
7 1 -4.15437 46.421 -22.0188
8 1 -3.96649 46.1888 -22.9221
9 1 -3.93846 45.8371 -23.8013
10 1 -4.16613 45.9809 -24.6662
11 1 -4.44159 46.247 -25.5153
12 1 -4.99709 46.1587 -26.2525
13 1 -4.94342 46.5361 -27.0835
14 1 -5.04726 46.0976 -28.0023
15 1 -4.65595 45.4005 -28.3945
16 1 -4.21078 44.9354 -29.0749
17 1 -3.53935 44.6478 -29.7206
18 1 -3.0325 44.2172 -30.3828
19 1 -3.59318 44.6568 -31.0633
20 1 -4.46502 44.885 -30.7049
21 1 -4.74248 45.4072 -29.9829
22 1 -5.17289 46.1135 -29.4635
23 1 -4.63306 46.8643 -29.3031
24 1 -4.72353 47.7912 -29.426
25 1 -5.30938 47.9854 -30.136
26 1 -5.98031 48.4443 -30.6822
27 1 -5.5753 49.1755 -31.1455
28 1 -4.86089 49.438 -31.6789
29 1 -4.0099 49.532 -31.9715
30 1 -3.12806 49.3911 -32.287
31 1 -2.34688 49.8646 -32.5195
32 1 -2.0147 50.6677 -32.8296
ITEM: TIMESTEP
3440000
ITEM: NUMBER OF ATOMS
32
ITEM: BOX BOUNDS mm mm mm
-1.6000000000000000e+01 1.6000000000000000e+01
-1.6000000000000000e+01 4.7633783297230877e+01
-3.6848659002981087e+01 1.6000000000000000e+01
ITEM: ATOMS id type x y z
1 1 0.848935 40.093 -23.0299
2 1 0.166316 40.4466 -23.4756
3 1 -0.604994 40.8867 -23.8383
4 1 -1.43805 41.0375 -24.153
5 1 -2.31562 41.5214 -24.2417
6 1 -3.15524 41.2615 -24.3836
7 1 -3.77037 41.858 -24.8787
8 1 -4.17689 42.6585 -25.2291
9 1 -3.60664 43.2723 -25.6338
10 1 -3.385 43.4614 -26.5699
11 1 -3.17826 44.0868 -27.2272
12 1 -2.82139 44.9236 -27.4517
13 1 -3.16203 45.6134 -26.9497
14 1 -4.02055 45.9193 -26.6934
15 1 -4.96927 45.8594 -26.4368
16 1 -5.78873 45.4916 -26.7876
17 1 -6.65846 45.3351 -27.1084
18 1 -7.12744 45.0024 -27.8252
19 1 -7.52457 44.4846 -28.4985
20 1 -7.5954 43.92 -29.268
21 1 -7.94513 43.721 -30.1021
22 1 -7.38383 43.4748 -30.8695
23 1 -6.99381 44.1963 -31.3492
24 1 -6.83307 45.0477 -31.6254
25 1 -7.21719 45.8508 -31.8465
26 1 -6.98655 46.7654 -32.1846
27 1 -7.17152 47.0745 -33.0994
28 1 -7.4031 47.5315 -33.8719
29 1 -7.35732 47.2762 -34.77
30 1 -7.55906 46.6759 -35.473
31 1 -6.95419 46.2183 -36.0208
32 1 -6.54202 46.6788 -36.7234
ITEM: TIMESTEP
3450000
ITEM: NUMBER OF ATOMS
32
ITEM: BOX BOUNDS mm mm mm
-1.6000000000000000e+01 1.6000000000000000e+01
-1.6000000000000000e+01 4.7926827856266669e+01
-4.0053875583397371e+01 1.6000000000000000e+01
ITEM: ATOMS id type x y z
1 1 1.92334 43.6065 -27.1142
2 1 1.3869 44.3131 -26.9628
3 1 0.766234 44.6438 -26.3166
4 1 0.672048 45.5381 -26.2218
5 1 0.258291 45.7203 -25.373
6 1 -0.229801 45.8788 -24.5641
7 1 -1.12947 45.5939 -24.6139
8 1 -1.80911 45.6137 -25.285
9 1 -2.67564 45.866 -25.4422
10 1 -3.49257 46.2256 -25.6487
11 1 -3.96727 46.9376 -26.0319
12 1 -4.34718 47.5592 -26.6533
13 1 -4.65162 48.0283 -27.3973
14 1 -5.18466 47.8595 -28.1937
15 1 -5.84476 47.7324 -28.8588
16 1 -5.61153 47.8276 -29.79
17 1 -5.53004 47.8226 -30.7451
18 1 -5.12204 47.3083 -31.4303
19 1 -4.98751 47.5667 -32.3458
20 1 -4.75932 47.568 -33.2805
21 1 -4.57249 47.5536 -34.2219
22 1 -4.87953 47.4145 -35.0612
23 1 -5.68619 47.2435 -35.4086
24 1 -6.32377 46.8927 -36.0361
25 1 -6.5959 46.7984 -36.9398
26 1 -7.22191 46.0466 -36.977
27 1 -7.51565 45.8236 -37.8098
28 1 -8.15327 45.8592 -38.4385
29 1 -8.89672 45.8843 -39.0191
30 1 -9.70914 46.2593 -39.3213
31 1 -10.4741 46.615 -39.7676
32 1 -11.1174 46.708 -40.404
ITEM: TIMESTEP
3460000
ITEM: NUMBER OF ATOMS
32
ITEM: BOX BOUNDS mm mm mm
-1.6000000000000000e+01 1.6000000000000000e+01
-1.6000000000000000e+01 4.7459621154187765e+01
-3.4902631300126458e+01 1.6000000000000000e+01
ITEM: ATOMS id type x y z
1 1 -1.05413 43.9155 -34.5662
2 1 -0.557693 43.3592 -33.9979
3 1 0.169953 43.5083 -33.4439
4 1 0.526635 43.6912 -32.5745
5 1 0.673146 43.3796 -31.674
6 1 1.34646 43.2462 -31.0693
7 1 2.11751 43.7148 -31.1539
8 1 1.51743 44.404 -30.9398
9 1 0.692194 44.4342 -31.3612
10 1 0.0788475 44.7063 -32.0294
11 1 -0.646444 44.8521 -32.5657
12 1 -0.963075 45.2163 -33.3989
13 1 -0.281428 45.8629 -33.4845
14 1 0.480104 46.2162 -33.0925
15 1 0.729862 46.6403 -32.2194
16 1 -0.1879 46.4194 -32.1516
17 1 -1.09431 46.2327 -31.9794
18 1 -1.79827 46.4549 -31.3753
19 1 -2.60743 46.651 -30.9309
20 1 -3.39807 46.3517 -30.5942