ITEM: TIMESTEP
2370000
ITEM: NUMBER OF ATOMS
32
ITEM: BOX BOUNDS mm mm mm
-3.4262331270402719e+01 1.6000000000000000e+01
-1.6000000000000000e+01 2.5516755816642998e+01
-1.6000000000000000e+01 1.6000000000000000e+01
ITEM: ATOMS id type x y z
1 1 -22.9779 25.5136 9.30659
2 1 -23.6113 24.8766 9.54809
3 1 -24.2789 24.2705 9.79738
4 1 -24.9991 23.5618 9.97537
5 1 -25.6578 22.9151 10.2068
6 1 -26.3695 22.2667 10.4421
7 1 -27.0329 21.5271 10.5589
8 1 -27.5668 20.7271 10.7144
9 1 -28.0176 19.9076 10.8547
10 1 -28.3665 19.0525 10.9552
11 1 -28.6832 18.1209 11.1934
12 1 -29.1228 17.3321 11.2032
13 1 -29.5714 16.5417 11.1666
14 1 -30.0512 15.7087 11.0743
15 1 -30.456 14.799 11.034
16 1 -30.8572 13.9732 10.9829
17 1 -31.3457 13.0806 10.8612
18 1 -31.7713 12.2744 10.7996
19 1 -32.1642 11.4391 10.664
20 1 -32.4475 10.5535 10.4667
21 1 -32.6715 9.60589 10.1929
22 1 -32.9469 8.70167 9.90345
23 1 -33.1685 7.80456 9.68756
24 1 -33.3535 6.90747 9.52728
25 1 -33.6234 6.01147 9.32903
26 1 -33.8861 5.12227 8.99047
27 1 -34.0749 4.32286 8.55095
28 1 -34.1684 3.53502 8.14134
29 1 -34.2135 2.67247 7.67372
30 1 -34.2591 1.80918 7.27336
31 1 -34.2115 0.901214 6.90115
32 1 -34.0669 0.0549118 6.53578
ITEM: TIMESTEP
2380000
ITEM: NUMBER OF ATOMS
32
ITEM: BOX BOUNDS mm mm mm
-3.4136543203573467e+01 1.6000000000000000e+01
-1.6000000000000000e+01 2.9486308421350174e+01
-1.6000000000000000e+01 1.6000000000000000e+01
ITEM: ATOMS id type x y z
1 1 -29.0387 29.7703 12.4202
2 1 -29.0733 28.8183 12.4775
3 1 -29.1338 27.8159 12.4527
4 1 -29.3253 26.9131 12.3807
5 1 -29.5874 25.9774 12.3033
6 1 -29.8658 25.1059 12.1715
7 1 -30.1517 24.2141 11.9446
8 1 -30.4831 23.3445 11.8269
9 1 -30.7819 22.4363 11.7204
10 1 -31.0184 21.5106 11.6178
11 1 -31.1684 20.576 11.4493
12 1 -31.4062 19.6762 11.4294
13 1 -31.6005 18.7582 11.2955
14 1 -31.6899 17.8173 11.3123
15 1 -31.7131 16.8689 11.2864
16 1 -31.6002 15.9039 11.2974
17 1 -31.5627 14.9646 11.4246
18 1 -31.5282 13.9811 11.4381
19 1 -31.5323 13.04 11.4561
20 1 -31.5181 12.099 11.5522
21 1 -31.3608 11.2104 11.652
22 1 -31.2109 10.3005 11.5997
23 1 -31.1234 9.38234 11.5456
24 1 -31.1817 8.45554 11.4422
25 1 -31.3408 7.56421 11.3672
26 1 -31.6257 6.59482 11.2161
27 1 -32.0028 5.72577 11.1553
28 1 -32.3148 4.84057 11.0919
29 1 -32.6767 4.00881 10.9849
30 1 -33.0916 3.17107 10.8446
31 1 -33.5788 2.38238 10.6467
32 1 -34.1077 1.62704 10.3292
ITEM: TIMESTEP
2390000
ITEM: NUMBER OF ATOMS
32
ITEM: BOX BOUNDS mm mm mm
-3.5170259498078423e+01 1.6000000000000000e+01
-1.6000000000000000e+01 2.7280542521672928e+01
-1.6000000000000000e+01 1.6000000000000000e+01
ITEM: ATOMS id type x y z
1 1 -35.17 27.3451 4.13251
2 1 -34.6736 26.6753 4.52385
3 1 -34.1828 26.1228 5.0614
4 1 -33.7096 25.5013 5.58791
5 1 -33.2534 24.8975 6.08926
6 1 -32.6497 24.2435 6.46681
7 1 -32.0585 23.62 6.84624
8 1 -31.5196 22.8522 7.20348
9 1 -31.1053 22.1141 7.66962
10 1 -30.7027 21.4042 8.08367
11 1 -30.3273 20.6551 8.52128
12 1 -30.1116 19.8388 8.9883
13 1 -30.0008 18.9748 9.43142
14 1 -29.9937 18.133 9.79324
15 1 -30.0273 17.2997 10.1765
16 1 -30.0018 16.3803 10.4322
17 1 -30.0589 15.4764 10.7819
18 1 -30.1589 14.5451 10.9674
19 1 -30.2311 13.6728 11.1912
20 1 -30.3755 12.8116 11.4569
21 1 -30.4425 11.9375 11.7184
22 1 -30.4979 11.0885 12.182
23 1 -30.5988 10.2584 12.6047
24 1 -30.7468 9.39559 13.0913
25 1 -30.8987 8.59797 13.4873
26 1 -31.0977 7.74342 13.9016
27 1 -31.2249 6.82642 14.1568
28 1 -31.4073 5.93228 14.3537
29 1 -31.6773 5.05598 14.5813
30 1 -31.9471 4.22741 14.9097
31 1 -32.2037 3.37073 15.1366
32 1 -32.4055 2.5552 15.5281
ITEM: TIMESTEP
2400000
ITEM: NUMBER OF ATOMS
32
ITEM: BOX BOUNDS mm mm mm
-3.5637852006481118e+01 1.6000000000000000e+01
-1.6000000000000000e+01 2.8211804864488904e+01
-1.6000000000000000e+01 1.6000000000000000e+01
ITEM: ATOMS id type x y z
1 1 -30.4269 28.4573 2.95253
2 1 -30.6881 27.5212 3.15929
3 1 -30.9285 26.6526 3.42961
4 1 -31.1575 25.779 3.78168
5 1 -31.4891 24.9582 4.08164
6 1 -31.7657 24.0908 4.35632
7 1 -32.0795 23.2622 4.73899
8 1 -32.3336 22.4787 5.17024
9 1 -32.5164 21.6943 5.65569
10 1 -32.698 20.8992 6.15812
11 1 -32.7659 20.1423 6.69972
12 1 -33.0333 19.3319 7.24164
13 1 -33.3316 18.5687 7.68881
14 1 -33.7202 17.8384 8.12607
15 1 -33.9865 17.0517 8.56292
16 1 -34.2301 16.3376 9.08106
17 1 -34.5515 15.6061 9.63015
18 1 -34.7985 14.8402 10.1641
19 1 -34.9635 14.1019 10.7745
20 1 -35.1021 13.3608 11.3359
21 1 -35.2379 12.5763 11.8942
22 1 -35.2925 11.7653 12.3801
23 1 -35.3997 10.9174 12.8789
24 1 -35.4348 10.0494 13.1756
25 1 -35.4244 9.09984 13.4434
26 1 -35.4176 8.16448 13.6516
27 1 -35.4223 7.2746 13.996
28 1 -35.3655 6.37143 14.1831
29 1 -35.392 5.46426 14.4739
30 1 -35.4991 4.57631 14.7792
31 1 -35.6628 3.70958 15.0578
32 1 -35.7087 2.80192 15.2668
ITEM: TIMESTEP
2410000
ITEM: NUMBER OF ATOMS
32
ITEM: BOX BOUNDS mm mm mm
-4.5368977800802220e+01 1.6000000000000000e+01
-1.6000000000000000e+01 2.2158710032105382e+01
-1.6000000000000000e+01 1.8715921336844342e+01
ITEM: ATOMS id type x y z
1 1 -31.3389 22.5011 7.08331
2 1 -31.8124 21.7298 6.86297
3 1 -32.1537 20.9002 6.71677
4 1 -32.5096 20.081 6.56268
5 1 -32.8868 19.1748 6.45476
6 1 -33.3334 18.304 6.37355
7 1 -33.7722 17.4178 6.34789
8 1 -34.1801 16.5995 6.30772
9 1 -34.7553 15.8821 6.31296
10 1 -35.3146 15.1472 6.44991
11 1 -35.9604 14.5621 6.76037
12 1 -36.5289 13.9114 7.05176
13 1 -37.1014 13.2792 7.40037
14 1 -37.6841 12.662 7.77896
15 1 -38.2486 12.1015 8.26707
16 1 -38.6967 11.4717 8.82313
17 1 -39.1392 10.8481 9.36677
18 1 -39.551 10.2108 9.91706
19 1 -39.8231 9.5548 10.5016
20 1 -40.1055 8.87982 11.053
21 1 -40.4237 8.21995 11.6173
22 1 -40.8363 7.58375 12.2287
23 1 -41.2215 6.86084 12.8092
24 1 -41.6977 6.30522 13.4051
25 1 -42.1263 5.73357 14.0377
26 1 -42.5823 5.23843 14.6899
27 1 -43.0462 4.82667 15.356
28 1 -43.4864 4.40583 16.0524
29 1 -43.9717 3.94116 16.7671
30 1 -44.5168 3.55925 17.4257
31 1 -45.062 3.16749 18.0769
32 1 -45.6087 2.71292 18.6866
ITEM: TIMESTEP
2420000
ITEM: NUMBER OF ATOMS
32
ITEM: BOX BOUNDS mm mm mm
-4.5520302029779927e+01 1.6000000000000000e+01
-1.6000000000000000e+01 2.4570315090247735e+01
-1.6000000000000000e+01 1.6000000000000000e+01
ITEM: ATOMS id type x y z
1 1 -34.3093 24.4878 10.4163
2 1 -34.7896 23.74 10.6337
3 1 -35.2536 22.9118 10.6604
4 1 -35.7249 22.0811 10.635
5 1 -36.1786 21.2343 10.6209
6 1 -36.6635 20.413 10.5742
7 1 -37.1169 19.6094 10.5483
8 1 -37.5836 18.8194 10.5917
9 1 -38.068 18.0077 10.6576
10 1 -38.4422 17.1506 10.7478
11 1 -38.766 16.2757 10.7375
12 1 -38.9795 15.3678 10.73
13 1 -39.1923 14.457 10.7328
14 1 -39.418 13.5241 10.7268
15 1 -39.7376 12.6582 10.8366
16 1 -40.1164 11.8224 10.8894
17 1 -40.4116 10.9321 11.0415
18 1 -40.6926 10.0443 11.2705
19 1 -40.9407 9.14738 11.4194
20 1 -41.3103 8.31248 11.6022
21 1 -41.6739 7.4633 11.9071
22 1 -41.9586 6.61384 12.1348
23 1 -42.2178 5.79759 12.4409
24 1 -42.5131 4.98398 12.6816
25 1 -42.8812 4.21768 12.9365
26 1 -43.235 3.32245 13.1513
27 1 -43.615 2.53061 13.4562
28 1 -44.0736 1.73407 13.7
29 1 -44.5284 0.938965 13.9089
30 1 -44.891 0.0286983 14.1202
31 1 -45.2946 -0.845451 14.4181
32 1 -45.6426 -1.75008 14.6426
ITEM: TIMESTEP
2430000
ITEM: NUMBER OF ATOMS
32
ITEM: BOX BOUNDS mm mm mm
-4.6891158348116257e+01 1.6000000000000000e+01
-1.6000000000000000e+01 2.3555544988501794e+01
-1.6000000000000000e+01 1.6000000000000000e+01
ITEM: ATOMS id type x y z
1 1 -46.8937 23.5687 14.456
2 1 -46.6681 22.6791 14.4258
3 1 -46.4159 21.7733 14.3836
4 1 -46.0688 20.8446 14.3496
5 1 -45.6623 20.0201 14.2634
6 1 -45.354 19.0653 14.1638
7 1 -45.159 18.1568 14.0392
8 1 -45.0001 17.2003 13.9769
9 1 -44.89 16.3114 13.9668
10 1 -44.8109 15.375 14.0072
11 1 -44.6874 14.4769 14.0657
12 1 -44.5904 13.543 14.0541
13 1 -44.4669 12.591 14.0618
14 1 -44.4014 11.6065 14.0996
15 1 -44.3379 10.6966 14.0373
16 1 -44.331 9.74977 14.0283
17 1 -44.4482 8.80779 14.0545
18 1 -44.7054 7.87933 14.115
19 1 -44.9924 6.97037 14.2216
20 1 -45.2917 6.07694 14.2363
21 1 -45.6248 5.23284 14.4406
22 1 -45.8507 4.28393 14.5635
23 1 -46.0568 3.36292 14.4449
24 1 -46.1826 2.44795 14.3291
25 1 -46.3093 1.56694 14.2151
26 1 -46.2793 0.679124 14.1223
27 1 -46.1154 -0.257006 14.0396
28 1 -45.9705 -1.15582 13.968
29 1 -45.7243 -2.07167 13.921
30 1 -45.3896 -2.99979 13.8714
31 1 -45.004 -3.86338 13.8178
32 1 -44.6209 -4.73347 13.8501
ITEM: TIMESTEP
2440000
ITEM: NUMBER OF ATOMS
32
ITEM: BOX BOUNDS mm mm mm
-4.8886937635214863e+01 1.6000000000000000e+01
-1.6000000000000000e+01 2.1021948774443182e+01
-1.6000000000000000e+01 2.1752779542197086e+01
ITEM: ATOMS id type x y z
1 1 -49.2092 20.8636 22.0344
2 1 -48.7339 20.1586 21.638
3 1 -48.2595 19.5291 21.1733
4 1 -47.7752 18.8376 20.6359
5 1 -47.3649 18.0972 20.1653
6 1 -46.9304 17.3674 19.788
7 1 -46.6245 16.5229 19.5019
8 1 -46.252 15.7765 19.0676
9 1 -46.0777 14.9328 18.6115
10 1 -46.0593 14.0721 18.1988
11 1 -45.9838 13.247 17.7874
12 1 -45.9053 12.3581 17.3699
13 1 -45.9172 11.4977 17.052
14 1 -45.9729 10.6366 16.649
15 1 -46.0263 9.75938 16.2786
16 1 -46.1197 8.90717 15.9883
17 1 -46.1204 7.95789 15.82
18 1 -46.0996 7.08983 15.595
19 1 -46.1889 6.27806 15.18
20 1 -46.3098 5.42141 14.7588
21 1 -46.3242 4.59489 14.3339
22 1 -46.4127 3.80483 13.9236
23 1 -46.565 2.94922 13.4975
24 1 -46.6752 2.05502 13.2077
25 1 -46.6199 1.23538 12.7697
26 1 -46.5235 0.47458 12.2208
27 1 -46.5085 -0.335257 11.7481
28 1 -46.3844 -1.13442 11.3546
29 1 -46.4601 -1.93186 10.9017
30 1 -46.3556 -2.70174 10.4216
31 1 -46.3926 -3.55623 10.0178
32 1 -46.5054 -4.4091 9.64324
ITEM: TIMESTEP
2450000
ITEM: NUMBER OF ATOMS
32
ITEM: BOX BOUNDS mm mm mm
-4.6914131334863526e+01 1.6000000000000000e+01
-1.6000000000000000e+01 2.0971493511183677e+01
-1.6000000000000000e+01 2.3572093497421442e+01
ITEM: ATOMS id type x y z
1 1 -45.9393 21.5888 23.2359
2 1 -46.1212 20.8421 22.6959
3 1 -46.2384 20.1609 22.0993
4 1 -46.4339 19.4892 21.4715
5 1 -46.5989 18.7064 20.9598
6 1 -46.6583 17.9437 20.3884
7 1 -46.8144 17.2479 19.7802
8 1 -46.8642 16.5098 19.0975
9 1 -46.886 15.8068 18.4696
10 1 -46.8358 15.0637 17.9303
11 1 -46.7463 14.3036 17.3539
12 1 -46.5877 13.5628 16.7695
13 1 -46.3332 12.8121 16.1413
14 1 -46.0122 12.0821 15.5844
15 1 -45.5877 11.311 15.2884
16 1 -45.2943 10.3905 14.8973
17 1 -45.0202 9.54507 14.608
18 1 -44.8281 8.62859 14.2389
19 1 -44.6186 7.76678 13.9963
20 1 -44.453 6.88773 13.6022
21 1 -44.3923 5.99496 13.1573
22 1 -44.3721 5.22308 12.6202
23 1 -44.3759 4.3356 12.1787
24 1 -44.4639 3.4451 11.8347
25 1 -44.5713 2.57941 11.4927
26 1 -44.7975 1.72599 11.2855
27 1 -45.1049 0.885763 11.0743
28 1 -45.2985 -0.0140551 11.0746
29 1 -45.5686 -0.913841 11.1322
30 1 -45.9109 -1.77677 11.321
31 1 -46.2054 -2.59198 11.5602
32 1 -46.5578 -3.44125 11.7768
ITEM: TIMESTEP
2460000
ITEM: NUMBER OF ATOMS
32
ITEM: BOX BOUNDS mm mm mm
-4.6715719111517267e+01 1.6000000000000000e+01
-1.6000000000000000e+01 2.3501156821500793e+01
-1.6000000000000000e+01 1.9360612499600862e+01
ITEM: ATOMS id type x y z
1 1 -44.4466 23.6002 14.7576
2 1 -44.4588 22.7603 14.2923
3 1 -44.4747 21.9098 13.7524
4 1 -44.5914 21.0378 13.34
5 1 -44.6945 20.1976 12.8223
6 1 -44.8478 19.4041 12.3576
7 1 -45.0187 18.5844 11.9198
8 1 -45.1048 17.7268 11.575
9 1 -45.0248 16.8193 11.35
10 1 -44.8875 15.8779 11.2886
11 1 -44.7801 14.9196 11.1973
12 1 -44.7135 13.908 11.1878
13 1 -44.613 12.9857 11.285
14 1 -44.5215 12.0822 11.5275
15 1 -44.6105 11.248 11.8294
16 1 -44.6882 10.3418 12.1121
17 1 -44.731 9.43086 12.3233
18 1 -44.8573 8.49323 12.4737
19 1 -45.0399 7.55122 12.6084
20 1 -45.2273 6.64625 12.7938
21 1 -45.3186 5.79262 13.0543
22 1 -45.3697 4.89261 13.2537
23 1 -45.4335 3.98994 13.6545
24 1 -45.4634 3.21383 14.2186
25 1 -45.5554 2.52233 14.8665
26 1 -45.6574 1.89702 15.5474
27 1 -45.8822 1.22658 16.1909
28 1 -46.051 0.577763 16.8086
29 1 -46.2125 -0.192864 17.4411
30 1 -46.3791 -0.769699 18.0827
31 1 -46.636 -1.45893 18.6626
32 1 -46.9499 -2.17544 19.2289
ITEM: TIMESTEP
2470000
ITEM: NUMBER OF ATOMS
32
ITEM: BOX BOUNDS mm mm mm
-4.5291362733846185e+01 1.6000000000000000e+01
-1.6000000000000000e+01 1.9042122923781577e+01
-1.6000000000000000e+01 1.6519944441751868e+01
ITEM: ATOMS id type x y z
1 1 -38.6486 18.9752 14.1986
2 1 -39.1131 18.193 14.5502
3 1 -39.6462 17.4692 14.8069
4 1 -40.0079 16.5479 14.9931
5 1 -40.3664 15.7073 15.2058
6 1 -40.8024 14.8955 15.4881
7 1 -41.2574 14.0672 15.8179
8 1 -41.7331 13.2754 15.9853
9 1 -42.1627 12.4617 16.0755
10 1 -42.5661 11.6156 16.1572
11 1 -42.9791 10.7758 16.1663
12 1 -43.4554 9.95403 16.0702
13 1 -43.8113 9.10287 16.135
14 1 -44.2422 8.27333 16.233
15 1 -44.5457 7.39034 16.3761
16 1 -44.811 6.50496 16.4505
17 1 -44.9283 5.53919 16.4724
18 1 -45.0599 4.6346 16.4785
19 1 -45.1488 3.68689 16.3859
20 1 -45.1402 2.74089 16.2858
21 1 -45.052 1.81437 16.1483
22 1 -44.916 0.936391 16.0975
23 1 -44.858 0.00819798 16.1572
24 1 -44.7853 -0.916784 16.1811
25 1 -44.6482 -1.90962 16.2108
26 1 -44.5118 -2.84783 16.0495
27 1 -44.3368 -3.72644 15.7726
28 1 -44.1194 -4.64464 15.5631
29 1 -43.9331 -5.51015 15.3366
30 1 -43.7798 -6.37611 15.0425
31 1 -43.7781 -7.25827 14.6926
32 1 -43.8345 -8.10442 14.2206
ITEM: TIMESTEP
2480000
ITEM: NUMBER OF ATOMS
32
ITEM: BOX BOUNDS mm mm mm
-4.7162751534181602e+01 1.6000000000000000e+01
-1.6000000000000000e+01 1.9563906511854054e+01
-1.6000000000000000e+01 1.9562549486861144e+01
ITEM: ATOMS id type x y z
1 1 -40.5677 19.6421 17.2778
2 1 -40.9765 18.7849 17.0883
3 1 -41.3841 17.9384 16.8862
4 1 -41.7614 17.0815 16.7811
5 1 -42.1178 16.1868 16.7462
6 1 -42.4459 15.2843 16.712
7 1 -42.7924 14.4403 16.6744
8 1 -43.2407 13.58 16.5059
9 1 -43.5932 12.737 16.3173
10 1 -44.0334 11.9009 16.244
11 1 -44.3066 10.9663 16.2012
12 1 -44.5945 10.0623 16.1528
13 1 -44.9233 9.16577 16.1653
14 1 -45.0411 8.24527 16.1931
15 1 -45.1874 7.34415 16.1599
16 1 -45.3297 6.38254 16.0561
17 1 -45.4728 5.42991 16.0764
18 1 -45.5317 4.53977 16.1944
19 1 -45.8494 3.61375 16.3486
20 1 -46.0803 2.71008 16.458
21 1 -46.2885 1.82074 16.6137
22 1 -46.4564 0.922315 16.6875
23 1 -46.6218 0.0273832 16.6815
24 1 -46.6577 -0.893532 16.7275
25 1 -46.6133 -1.82916 16.909
26 1 -46.6426 -2.70521 17.1312
27 1 -46.7814 -3.58885 17.3857
28 1 -46.9084 -4.41236 17.7046
29 1 -47.0137 -5.27562 18.1647
30 1 -46.9818 -6.18078 18.4682
31 1 -46.9178 -6.97428 18.9398
32 1 -46.908 -7.72189 19.5249
ITEM: TIMESTEP
2490000
ITEM: NUMBER OF ATOMS
32
ITEM: BOX BOUNDS mm mm mm
-5.0718637470246669e+01 1.6000000000000000e+01
-1.6000000000000000e+01 1.9280300443393468e+01
-1.6000000000000000e+01 2.0255154150594070e+01
ITEM: ATOMS id type x y z
1 1 -37.0611 19.8497 17.2133
2 1 -37.3782 18.9603 17.1831
3 1 -37.8005 18.1381 17.1943
4 1 -38.3483 17.339 17.2002
5 1 -38.8844 16.5536 17.2673
6 1 -39.3436 15.7745 17.3519
7 1 -39.8697 15.0026 17.3819
8 1 -40.2956 14.1768 17.2292
9 1 -40.6276 13.3538 17.1896
10 1 -41.0084 12.5613 17.0122
11 1 -41.4396 11.8034 16.7659
12 1 -41.9084 10.9699 16.7444
13 1 -42.3368 10.0896 16.9565
14 1 -42.6934 9.22758 17.1588
15 1 -43.069 8.36266 17.3665
16 1 -43.4157 7.52759 17.5888
17 1 -43.6876 6.63329 17.7843
18 1 -44.0476 5.80229 17.9817
19 1 -44.4855 4.93322 18.2757
20 1 -44.8468 4.07336 18.4539
21 1 -45.3801 3.3225 18.7308
22 1 -45.8197 2.55967 19.1405
23 1 -46.3292 1.87413 19.5744
24 1 -46.7485 1.0686 19.9149
25 1 -47.1461 0.189007 20.026
26 1 -47.4639 -0.6696 20.0977
27 1 -47.8151 -1.5019 20.1648
28 1 -48.327 -2.32547 20.2099
29 1 -48.767 -3.16663 20.2695
30 1 -49.1992 -4.083 20.4896
31 1 -49.7367 -4.92398 20.6486
32 1 -50.2395 -5.6648 20.718
ITEM: TIMESTEP
2500000
ITEM: NUMBER OF ATOMS
32
ITEM: BOX BOUNDS mm mm mm
-5.4611885082769462e+01 1.6000000000000000e+01
-1.6000000000000000e+01 1.9652348886514474e+01
-1.6000000000000000e+01 1.8441556720129288e+01
ITEM: ATOMS id type x y z
1 1 -43.1826 19.5013 17.8393
2 1 -42.7923 18.6138 17.9027
3 1 -42.4527 17.7478 17.7884
4 1 -42.2417 16.8539 17.7317
5 1 -41.9791 15.9271 17.703
6 1 -41.8131 14.9755 17.6733
7 1 -41.7524 14.0473 17.601
8 1 -41.6775 13.1081 17.4896
9 1 -41.7244 12.1646 17.3236
10 1 -41.8947 11.227 17.217
11 1 -42.1253 10.2665 17.2313
12 1 -42.5102 9.40655 17.1533
13 1 -42.9753 8.61045 17.2242
14 1 -43.6602 7.92781 17.2685
15 1 -44.2928 7.23933 17.3529
16 1 -45.0173 6.68504 17.2746
17 1 -45.778 6.1 17.2851
18 1 -46.4342 5.45512 17.2161
19 1 -46.9583 4.67155 17.1873
20 1 -47.5896 3.97189 17.2437
21 1 -48.211 3.27184 17.4348
22 1 -48.8426 2.63502 17.5457
23 1 -49.4932 1.96564 17.6875
24 1 -50.1597 1.24503 17.814
25 1 -50.6953 0.516667 17.8782
26 1 -51.2506 -0.246579 17.9189
27 1 -51.813 -1.01683 17.8819
28 1 -52.3539 -1.7571 17.9032
29 1 -52.8787 -2.56792 18.1224
30 1 -53.3657 -3.3923 18.3088
31 1 -53.7761 -4.20766 18.521
32 1 -54.2095 -5.03322 18.6637
ITEM: TIMESTEP
2510000
ITEM: NUMBER OF ATOMS
32
ITEM: BOX BOUNDS mm mm mm
-4.7585399377160989e+01 1.6000000000000000e+01
-1.6000000000000000e+01 2.0684349363785991e+01
-1.6000000000000000e+01 2.1947245517122230e+01
ITEM: ATOMS id type x y z
1 1 -44.1171 20.745 16.2053
2 1 -43.6635 19.9788 16.052
3 1 -43.192 19.1777 15.939
4 1 -42.8309 18.2502 15.941
5 1 -42.49 17.3721 15.9711
6 1 -42.2353 16.4626 16.0954
7 1 -42.0936 15.5335 16.1779
8 1 -42.0151 14.5753 16.2464
9 1 -42.0587 13.6428 16.4588
10 1 -42.1449 12.6847 16.6439
11 1 -42.1634 11.7175 16.8959
12 1 -42.2075 10.8587 17.1395
13 1 -42.2851 9.95518 17.3837
14 1 -42.431 9.08091 17.7035
15 1 -42.5856 8.12925 17.8664
16 1 -42.542 7.20335 18.0149
17 1 -42.5217 6.18934 18.0352
18 1 -42.4352 5.26558 18.1006
19 1 -42.4942 4.36781 18.1421
20 1 -42.6228 3.42171 18.271
21 1 -42.7546 2.53495 18.5472
22 1 -43.0658 1.65431 18.7379
23 1 -43.423 0.807525 18.9876
24 1 -43.6461 -0.0577201 19.3276
25 1 -43.8249 -0.922414 19.699
26 1 -44.0892 -1.79244 20.0896
27 1 -44.4382 -2.56195 20.5009
28 1 -44.8 -3.34704 20.8629
29 1 -45.363 -4.09056 21.1205
30 1 -46.0352 -4.66937 21.4576
31 1 -46.7366 -5.1437 21.7565
32 1 -47.4893 -5.64052 21.9778
ITEM: TIMESTEP
2520000
ITEM: NUMBER OF ATOMS
32
ITEM: BOX BOUNDS mm mm mm
-4.6756219515556140e+01 1.6000000000000000e+01
-1.6000000000000000e+01 1.9304222620282257e+01
-1.6000000000000000e+01 2.7409713193916708e+01
ITEM: ATOMS id type x y z
1 1 -35.5588 19.2239 10.4222
2 1 -36.306 18.7255 10.7099
3 1 -37.049 18.1858 11.1294
4 1 -37.7011 17.661 11.5428
5 1 -38.3742 17.181 12.0079
6 1 -38.8582 16.6788 12.6596
7 1 -39.2958 16.2072 13.3321
8 1 -39.7431 15.6868 13.961
9 1 -40.1799 15.1427 14.6109
10 1 -40.6681 14.5698 15.112
11 1 -41.0738 13.9391 15.6149
12 1 -41.4992 13.3121 16.2133
13 1 -41.9131 12.7189 16.8602
14 1 -42.3931 12.1516 17.4129
15 1 -42.8277 11.4527 17.9154
16 1 -43.1972 10.754 18.3619
17 1 -43.5006 9.93126 18.7654
18 1 -43.7568 9.17526 19.1916
19 1 -43.9505 8.4233 19.6875
20 1 -44.1343 7.77547 20.3437
21 1 -44.4124 7.16441 20.9764
22 1 -44.657 6.48414 21.609
23 1 -44.8463 5.80674 22.1778
24 1 -45.1746 5.13643 22.7499
25 1 -45.4364 4.3961 23.3245
26 1 -45.8158 3.70413 23.944
27 1 -46.0893 3.08144 24.5884
28 1 -46.259 2.39041 25.1667
29 1 -46.357 1.6319 25.6107
30 1 -46.4886 0.79934 26.0363
31 1 -46.5485 -0.0386005 26.5292
32 1 -46.4964 -0.855972 26.9756
ITEM: TIMESTEP
2530000
ITEM: NUMBER OF ATOMS
32
ITEM: BOX BOUNDS mm mm mm
-5.3000451304427401e+01 1.6000000000000000e+01
-1.6000000000000000e+01 1.7222253346101596e+01
-1.6000000000000000e+01 2.3265363712899752e+01
ITEM: ATOMS id type x y z
1 1 -34.7691 17.3 11.217
2 1 -35.4526 16.7917 11.6212
3 1 -36.1292 16.2273 11.9517
4 1 -36.8164 15.6497 12.2887
5 1 -37.6675 15.1938 12.5851
6 1 -38.3705 14.6133 12.7216
7 1 -39.0435 14.0362 12.9298
8 1 -39.7931 13.4751 13.152
9 1 -40.4731 12.8533 13.3884
10 1 -41.2251 12.3218 13.6675
11 1 -41.9803 11.8124 14.004
12 1 -42.6993 11.2828 14.417
13 1 -43.3655 10.7942 14.8131
14 1 -43.9767 10.1 15.2006
15 1 -44.5427 9.51869 15.6014
16 1 -45.0763 8.85853 15.8762
17 1 -45.6928 8.17536 16.0553
18 1 -46.2346 7.47869 16.2201
19 1 -46.7915 6.74633 16.4696
20 1 -47.3105 6.05354 16.7142
21 1 -47.7722 5.26082 17.0716
22 1 -48.223 4.55639 17.4635
23 1 -48.7089 3.85024 17.8027
24 1 -49.2928 3.20115 18.1481
25 1 -49.8698 2.63391 18.5462
26 1 -50.2637 1.98139 19.0409
27 1 -50.6691 1.3345 19.5725
28 1 -51.194 0.781905 20.175
29 1 -51.5997 0.33698 20.8775
30 1 -52.1272 -0.0155567 21.6836
31 1 -52.5656 -0.277745 22.5149
32 1 -52.9978 -0.570713 23.3035
ITEM: TIMESTEP
2540000
ITEM: NUMBER OF ATOMS
32
ITEM: BOX BOUNDS mm mm mm
-4.5364831152949847e+01 1.6000000000000000e+01
-1.6000000000000000e+01 1.8369643617087920e+01
-1.6000000000000000e+01 2.0195618439227125e+01
ITEM: ATOMS id type x y z
1 1 -32.059 18.488 9.59889
2 1 -32.6352 17.9287 10.0403
3 1 -33.302 17.424 10.4911
4 1 -34.031 16.8764 10.8792
5 1 -34.719 16.3809 11.2241
6 1 -35.3474 15.7968 11.3988
7 1 -36.0426 15.1861 11.6706
8 1 -36.643 14.5472 11.9277
9 1 -37.2667 13.8878 12.187
10 1 -37.8536 13.148 12.3983
11 1 -38.4852 12.5176 12.7107
12 1 -39.1395 11.9048 12.9969
13 1 -39.764 11.1837 13.1964
14 1 -40.3604 10.5187 13.3813
15 1 -41.0075 9.83599 13.5507
16 1 -41.6251 9.1364 13.673
17 1 -42.1764 8.36746 13.7609
18 1 -42.6775 7.52925 13.918
19 1 -43.1313 6.80577 14.2254
20 1 -43.6006 6.04979 14.5867
21 1 -43.9897 5.28648 14.9686
22 1 -44.1792 4.45974 15.3386
23 1 -44.2498 3.62991 15.7926
24 1 -44.271 2.83207 16.2938
25 1 -44.2057 2.09405 16.8543
26 1 -44.2659 1.32701 17.4099
27 1 -44.3456 0.530128 17.9111
28 1 -44.482 -0.23712 18.421
29 1 -44.7585 -1.06946 18.8065
30 1 -44.8287 -1.92242 19.206
31 1 -44.7746 -2.79502 19.5811
32 1 -44.736 -3.59564 20.0803
ITEM: TIMESTEP
2550000
ITEM: NUMBER OF ATOMS
32
ITEM: BOX BOUNDS mm mm mm
-4.6477414332414355e+01 1.6000000000000000e+01
-1.6000000000000000e+01 1.8137215603466295e+01
-1.6000000000000000e+01 2.8105741611316805e+01
ITEM: ATOMS id type x y z
1 1 -36.9743 18.3239 7.89631
2 1 -37.4661 17.56 8.14028
3 1 -37.9625 16.7923 8.32927
4 1 -38.3957 15.9288 8.55798
5 1 -38.7202 15.0382 8.85467
6 1 -39.0202 14.2941 9.32232
7 1 -39.3671 13.5372 9.81934
8 1 -39.6912 12.7432 10.2815
9 1 -40.1158 12.132 10.7802
10 1 -40.5664 11.5377 11.3648
11 1 -40.9874 11.0813 12.001
12 1 -41.5097 10.5881 12.6971
13 1 -41.868 10.1718 13.4306
14 1 -42.1959 9.6873 14.1553
15 1 -42.579 9.25501 14.937
16 1 -42.866 8.79135 15.7339
17 1 -43.1125 8.39874 16.5127
18 1 -43.2397 7.88835 17.2859
19 1 -43.3353 7.39649 18.054
20 1 -43.2929 6.94353 18.8558
21 1 -43.2482 6.38731 19.5732
22 1 -43.2905 5.83427 20.2958
23 1 -43.4197 5.20763 20.9982
24 1 -43.4989 4.60583 21.7233
25 1 -43.6365 4.16384 22.5135
26 1 -43.9269 3.62401 23.1692
27 1 -44.2431 3.13855 23.9739
28 1 -44.6902 2.85635 24.7653
29 1 -45.1403 2.67524 25.5518
30 1 -45.6568 2.66338 26.3255
31 1 -46.2455 2.63171 27.1024
32 1 -46.6626 2.48296 27.9114
ITEM: TIMESTEP
2560000
ITEM: NUMBER OF ATOMS
32
ITEM: BOX BOUNDS mm mm mm
-4.8639258721042083e+01 1.6000000000000000e+01
-1.6000000000000000e+01 2.4161917344021905e+01
-1.6000000000000000e+01 2.4360279800197056e+01
ITEM: ATOMS id type x y z
1 1 -35.0103 24.2827 7.44115
2 1 -35.4376 23.5154 7.80715
3 1 -35.8899 22.8169 8.23306
4 1 -36.2876 22.1131 8.67484
5 1 -36.5418 21.4162 9.25347
6 1 -36.7936 20.7833 9.92019
7 1 -36.9918 20.0021 10.5035
8 1 -37.091 19.3982 11.1616
9 1 -37.2408 18.6605 11.8531
10 1 -37.6102 18.0386 12.4995
11 1 -37.8012 17.3739 13.1504
12 1 -38.0182 16.7907 13.8534
13 1 -38.2572 16.2474 14.5446
14 1 -38.4984 15.6824 15.2476
15 1 -38.8681 15.2598 15.9922
16 1 -39.2351 14.7156 16.6607
17 1 -39.6545 14.1945 17.3195
18 1 -39.9933 13.6372 17.9385
19 1 -40.3765 13.0532 18.5673
20 1 -40.8178 12.4542 19.1164
21 1 -41.2922 11.8205 19.6381
22 1 -41.7523 11.1713 20.2811
23 1 -42.1186 10.6197 20.9174
24 1 -42.6466 10.1795 21.5187
25 1 -43.3126 9.68451 21.9899
26 1 -44.0184 9.18853 22.4072
27 1 -44.7385 8.66712 22.7361
28 1 -45.4501 8.11072 23.036
29 1 -46.2102 7.5894 23.272
30 1 -46.994 7.15247 23.5601
31 1 -47.6686 6.69997 23.9768
32 1 -48.2728 6.0776 24.4381
ITEM: TIMESTEP
2570000
ITEM: NUMBER OF ATOMS
32
ITEM: BOX BOUNDS mm mm mm
-3.8636978866063700e+01 1.6000000000000000e+01
-1.6000000000000000e+01 2.1167952871127284e+01
-1.6000000000000000e+01 2.6501423351241876e+01
ITEM: ATOMS id type x y z
1 1 -33.7812 21.3388 6.03743
2 1 -34.0991 20.581 6.52593
3 1 -34.3701 19.8375 6.99573
4 1 -34.612 19.0402 7.39905
5 1 -34.8479 18.2214 7.84569
6 1 -35.0439 17.3889 8.24562
7 1 -35.2557 16.658 8.74344
8 1 -35.314 15.8496 9.21612
9 1 -35.488 15.0593 9.7171
10 1 -35.7798 14.3287 10.2716
11 1 -36.0704 13.676 10.9371
12 1 -36.3215 13.061 11.6129
13 1 -36.6963 12.507 12.3202
14 1 -37.0345 11.9701 13.0263
15 1 -37.3079 11.3856 13.7378
16 1 -37.4753 10.8752 14.4574
17 1 -37.672 10.2479 15.2161
18 1 -37.8329 9.62627 15.9627
19 1 -38.0205 9.03487 16.7155
20 1 -38.1062 8.36051 17.2981
21 1 -38.1022 7.72807 17.9805
22 1 -38.2251 7.10139 18.6373
23 1 -38.3207 6.53219 19.3776
24 1 -38.4121 5.94232 20.0366
25 1 -38.4001 5.34612 20.7401
26 1 -38.4068 4.8008 21.5329
27 1 -38.4376 4.37557 22.3966
28 1 -38.5035 3.89867 23.2018
29 1 -38.606 3.47159 24.0109
30 1 -38.7013 3.02814 24.8329
31 1 -38.861 2.72845 25.7713
32 1 -39.1015 2.51242 26.6954
ITEM: TIMESTEP
2580000
ITEM: NUMBER OF ATOMS
32
ITEM: BOX BOUNDS mm mm mm
-3.7303181321660276e+01 1.6000000000000000e+01
-1.6000000000000000e+01 1.9474298489663671e+01
-1.6000000000000000e+01 2.8364246602170560e+01
ITEM: ATOMS id type x y z
1 1 -37.1546 20.0635 7.31011
2 1 -36.9044 19.7071 8.14089
3 1 -36.6165 19.4086 8.95262
4 1 -36.3829 19.0115 9.85982
5 1 -36.1028 18.5723 10.6549
6 1 -35.7319 18.0941 11.4624
7 1 -35.4544 17.6091 12.1919
8 1 -35.2362 17.0658 12.9285
9 1 -34.9895 16.519 13.6953
10 1 -34.9311 15.9625 14.4158
11 1 -34.8092 15.4803 15.2261
12 1 -34.8115 14.9748 16.0081
13 1 -34.9116 14.4024 16.7728
14 1 -35.1126 13.7704 17.4908
15 1 -35.2762 13.185 18.2107
16 1 -35.4413 12.5753 18.8875
17 1 -35.4601 11.8985 19.5079
18 1 -35.5971 11.27 20.1861
19 1 -35.7776 10.6973 20.9354
20 1 -35.8499 10.1458 21.7024
21 1 -36.0026 9.58585 22.4295
22 1 -36.0577 8.98015 23.1619
23 1 -36.1531 8.2999 23.8222
24 1 -36.1773 7.47161 24.3276
25 1 -36.1824 6.66672 24.7536
26 1 -36.1239 5.8332 25.2293
27 1 -36.0773 5.07333 25.7979
28 1 -36.1074 4.40009 26.3902
29 1 -36.1296 3.69031 26.9615
30 1 -36.1381 2.91313 27.429
31 1 -36.1207 2.10997 27.9281
32 1 -36.1006 1.24851 28.2691
ITEM: TIMESTEP
2590000
ITEM: NUMBER OF ATOMS
32
ITEM: BOX BOUNDS mm mm mm
-3.7037374820540293e+01 1.6000000000000000e+01
-1.6000000000000000e+01 1.8400667752860773e+01
-1.6000000000000000e+01 3.5780073203023605e+01
ITEM: ATOMS id type x y z
1 1 -36.694 18.3443 9.17998
2 1 -36.1611 18.0864 9.86693
3 1 -35.6475 17.7602 10.6337
4 1 -35.1782 17.4938 11.3774
5 1 -34.7884 17.1986 12.1461
6 1 -34.5445 16.853 12.9814
7 1 -34.3132 16.471 13.7851
8 1 -34.063 16.0966 14.5821
9 1 -33.9731 15.7107 15.3975
10 1 -33.8192 15.4648 16.3066
11 1 -33.6855 15.2218 17.251
12 1 -33.7066 14.9825 18.147
13 1 -33.7297 14.8422 19.0597
14 1 -33.7389 14.7256 20.0106
15 1 -33.8616 14.6306 20.9649
16 1 -34.1677 14.5238 21.8726
17 1 -34.5023 14.4303 22.7246
18 1 -34.7948 14.3139 23.6201
19 1 -34.8967 14.1807 24.5178
20 1 -35.0616 13.9776 25.4071
21 1 -35.3231 13.6765 26.2496
22 1 -35.5602 13.3077 27.1115
23 1 -35.8137 12.9794 27.9718
24 1 -36.0946 12.6842 28.8654
25 1 -36.3304 12.3864 29.7222
26 1 -36.5675 12.0912 30.5768
27 1 -36.7168 11.755 31.4334
28 1 -36.9475 11.4431 32.3112
29 1 -37.0243 11.1795 33.2154
30 1 -37.1664 11.0685 34.1252
31 1 -37.2772 10.846 35.0872
32 1 -37.2333 10.4921 35.964
ITEM: TIMESTEP
2600000
ITEM: NUMBER OF ATOMS
32
ITEM: BOX BOUNDS mm mm mm
-3.8303475739774228e+01 1.6000000000000000e+01
-1.6000000000000000e+01 2.2162353026674957e+01
-1.6000000000000000e+01 3.2049070117243630e+01
ITEM: ATOMS id type x y z
1 1 -38.2055 21.8424 6.45681
2 1 -37.7993 21.8463 7.27885
3 1 -37.3504 21.7314 8.04229
4 1 -36.8234 21.5486 8.85642
5 1 -36.3103 21.3295 9.55121
6 1 -35.8299 20.9632 10.3571
7 1 -35.4001 20.6116 11.1538
8 1 -34.9986 20.4023 11.9473
9 1 -34.4367 20.1406 12.7347
10 1 -33.9997 20.0503 13.556
11 1 -33.763 19.81 14.4748
12 1 -33.5208 19.6057 15.3591
13 1 -33.2709 19.3253 16.263
14 1 -33.293 19.1243 17.15
15 1 -33.1626 18.8287 18.0323
16 1 -33.2279 18.5529 18.9214
17 1 -33.1758 18.2651 19.8223
18 1 -33.0759 17.9071 20.7015
19 1 -32.9634 17.4353 21.519
20 1 -32.8143 17.0522 22.4047
21 1 -32.6953 16.6616 23.2907
22 1 -32.707 16.2204 24.1121
23 1 -32.7687 15.8386 24.9307
24 1 -32.8759 15.4465 25.7686
25 1 -33.075 14.9979 26.5354
26 1 -33.3882 14.5464 27.2729
27 1 -33.701 14.0889 28.1012
28 1 -33.8842 13.6111 28.8509
29 1 -33.9147 13.0464 29.5911
30 1 -33.9489 12.511 30.328
31 1 -34.1737 12.0474 31.0847
32 1 -34.4269 11.4986 31.8326
ITEM: TIMESTEP
2610000
ITEM: NUMBER OF ATOMS
32
ITEM: BOX BOUNDS mm mm mm
-3.2992869873518593e+01 1.6000000000000000e+01
-1.6000000000000000e+01 2.7550564767503253e+01
-1.6000000000000000e+01 2.8904320329888250e+01
ITEM: ATOMS id type x y z
1 1 -30.0048 27.1172 6.63764
2 1 -30.2866 26.637 7.31212
3 1 -30.4772 26.1637 8.07505
4 1 -30.6423 25.6641 8.87176
5 1 -30.7669 25.218 9.72281
6 1 -30.7767 24.7692 10.5196
7 1 -30.8442 24.227 11.2926
8 1 -30.8644 23.8005 12.1311
9 1 -30.8934 23.343 12.9712
10 1 -30.9572 22.7738 13.7516
11 1 -31.1468 22.2869 14.5149
12 1 -31.349 21.7594 15.236
13 1 -31.5468 21.1729 15.9625
14 1 -31.7473 20.6242 16.7338
15 1 -31.9629 20.0397 17.4905
16 1 -32.1408 19.4304 18.2333
17 1 -32.3092 18.8408 18.9247
18 1 -32.436 18.1656 19.5801
19 1 -32.6038 17.4145 20.1923
20 1 -32.7199 16.7157 20.8026
21 1 -32.6919 15.9168 21.4088
22 1 -32.6716 15.2797 22.0487
23 1 -32.6829 14.6537 22.7358
24 1 -32.6563 13.9573 23.4076
25 1 -32.6522 13.3007 24.151
26 1 -32.6456 12.6209 24.7863
27 1 -32.6232 11.9178 25.4517
28 1 -32.4588 11.3003 26.141
29 1 -32.1828 10.644 26.735
30 1 -31.9971 10.0318 27.4149
31 1 -31.9238 9.46033 28.1319
32 1 -31.8771 8.91821 28.9296
ITEM: TIMESTEP
2620000
ITEM: NUMBER OF ATOMS
32
ITEM: BOX BOUNDS mm mm mm
-3.4948431788949669e+01 1.6000000000000000e+01
-1.6000000000000000e+01 3.0823895478540408e+01
-1.6000000000000000e+01 2.1821735165496101e+01
ITEM: ATOMS id type x y z
1 1 -24.1199 30.7907 12.3118
2 1 -24.5809 29.9731 12.3576
3 1 -25.1086 29.185 12.4164