ITEM: TIMESTEP
1440000
ITEM: NUMBER OF ATOMS
32
ITEM: BOX BOUNDS mm mm mm
-1.6000000000000000e+01 1.6000000000000000e+01
-1.6000000000000000e+01 1.6000000000000000e+01
-1.7809041085703054e+01 1.6000000000000000e+01
ITEM: ATOMS id type x y z
1 1 0.526147 0.493048 -16.7084
2 1 0.548938 1.01762 -17.4879
3 1 0.351933 1.98681 -17.6734
4 1 -0.430833 2.53622 -17.8057
5 1 -1.04465 3.10909 -17.4365
6 1 -1.68875 3.79202 -17.3328
7 1 -1.81853 4.17536 -16.4322
8 1 -2.31817 4.37314 -15.6497
9 1 -1.96543 5.11066 -15.1103
10 1 -2.30858 5.37695 -14.3006
11 1 -1.78554 5.45858 -13.5292
12 1 -0.999936 5.13205 -13.9347
13 1 -0.0114531 5.25994 -13.9056
14 1 -0.296157 5.39298 -13.0404
15 1 0.269828 5.58196 -12.3275
16 1 0.914589 5.97003 -11.7915
17 1 1.04673 5.91438 -10.8112
18 1 1.83771 6.37222 -11.0054
19 1 2.1726 6.61633 -11.8387
20 1 2.54337 5.76095 -11.9441
21 1 2.22774 4.85934 -11.7832
22 1 3.08556 4.43297 -11.6641
23 1 3.91444 4.27499 -11.2004
24 1 4.30534 3.76438 -11.8703
25 1 4.03036 3.00145 -11.4404
26 1 3.2602 2.48776 -11.0757
27 1 2.78907 2.26424 -11.8426
28 1 2.04097 2.64384 -11.4264
29 1 1.17799 2.69836 -11.7883
30 1 0.595977 3.06869 -11.1288
31 1 0.44623 4.03015 -11.2154
32 1 0.581863 4.79681 -10.6571
ITEM: TIMESTEP
1450000
ITEM: NUMBER OF ATOMS
32
ITEM: BOX BOUNDS mm mm mm
-1.6000000000000000e+01 1.6000000000000000e+01
-1.6000000000000000e+01 1.6000000000000000e+01
-1.9349306949716418e+01 1.6000000000000000e+01
ITEM: ATOMS id type x y z
1 1 7.07198 5.95457 -16.0468
2 1 7.12968 5.00731 -15.9715
3 1 6.38664 4.40745 -16.0388
4 1 5.73823 4.63851 -16.6803
5 1 5.33223 4.97529 -17.4369
6 1 4.47822 4.81218 -17.8722
7 1 3.6483 4.48877 -18.1844
8 1 3.79019 3.75928 -18.7147
9 1 3.76838 2.87704 -19.0325
10 1 4.40056 2.31475 -19.3459
11 1 3.80006 1.77331 -18.9157
12 1 3.88576 1.4246 -18.0714
13 1 3.58727 0.942012 -17.3285
14 1 3.57879 0.0554595 -17.1363
15 1 3.30088 -0.821041 -17.4251
16 1 2.4092 -1.16825 -17.3674
17 1 1.60291 -1.5179 -17.5324
18 1 0.864328 -1.93904 -17.0573
19 1 1.29725 -1.68539 -16.2697
20 1 1.50145 -0.82699 -16.5541
21 1 0.586614 -0.811412 -16.8053
22 1 -0.110195 -1.36588 -16.4615
23 1 -0.0139433 -0.825625 -15.735
24 1 0.16094 0.0631129 -15.6221
25 1 0.0383955 1.00328 -15.766
26 1 0.620993 1.51239 -15.2221
27 1 0.801767 0.697099 -14.8048
28 1 1.68056 0.406514 -14.7501
29 1 2.32218 0.726185 -15.3767
30 1 3.10863 0.173543 -15.2929
31 1 2.99867 0.0255605 -16.1976
32 1 3.38377 -0.835627 -16.3009
ITEM: TIMESTEP
1460000
ITEM: NUMBER OF ATOMS
32
ITEM: BOX BOUNDS mm mm mm
-1.6000000000000000e+01 1.6000000000000000e+01
-1.6000000000000000e+01 1.6000000000000000e+01
-1.8052980059464488e+01 1.6000000000000000e+01
ITEM: ATOMS id type x y z
1 1 10.1991 1.67026 -16.3355
2 1 10.2336 0.965177 -16.9665
3 1 10.3639 0.0630449 -16.7664
4 1 9.44932 0.142999 -17.0753
5 1 8.4972 0.0769025 -16.8948
6 1 7.98795 -0.524732 -17.4191
7 1 7.27531 -0.0691581 -17.8673
8 1 7.23838 -1.10338 -18.0496
9 1 7.61733 -1.60154 -17.3765
10 1 7.16413 -0.887134 -16.9345
11 1 6.5246 -1.57548 -17.191
12 1 5.76941 -1.0516 -17.0521
13 1 6.13131 -0.498296 -16.3834
14 1 5.66116 0.347443 -16.4133
15 1 5.25223 0.0313888 -15.656
16 1 4.62182 -0.614582 -15.5775
17 1 3.82899 -0.977206 -16.0078
18 1 4.0241 -1.78989 -16.3809
19 1 3.54147 -2.57105 -16.5169
20 1 2.78634 -3.07507 -16.747
21 1 2.06738 -3.48112 -17.067
22 1 1.36212 -3.97002 -16.644
23 1 1.33686 -4.7703 -17.1841
24 1 0.954178 -5.64904 -16.9741
25 1 1.13811 -6.53428 -17.4017
26 1 1.76828 -6.21055 -16.8107
27 1 2.18411 -6.34561 -15.9647
28 1 2.53849 -7.18461 -16.2786
29 1 2.00928 -7.8862 -16.4938
30 1 1.57571 -7.71492 -17.3099
31 1 1.24966 -8.51146 -17.0284
32 1 0.586233 -8.48545 -17.6184
ITEM: TIMESTEP
1470000
ITEM: NUMBER OF ATOMS
32
ITEM: BOX BOUNDS mm mm mm
-1.6000000000000000e+01 1.6000000000000000e+01
-1.6000000000000000e+01 1.6000000000000000e+01
-2.5900277033266530e+01 1.6000000000000000e+01
ITEM: ATOMS id type x y z
1 1 10.8921 3.2871 -22.1136
2 1 10.0254 3.20502 -22.5242
3 1 9.84466 2.5987 -21.8092
4 1 9.42448 2.05121 -22.4588
5 1 8.6805 1.74988 -22.9838
6 1 7.86758 1.80356 -23.5603
7 1 7.8851 0.953519 -23.9638
8 1 7.03482 1.06634 -24.4107
9 1 6.78968 1.30209 -25.294
10 1 6.48447 0.721346 -25.8969
11 1 6.2999 0.468901 -24.9716
12 1 6.22119 0.0388752 -24.1866
13 1 5.5772 -0.315052 -23.5426
14 1 4.64414 -0.097702 -23.7212
15 1 4.89306 -0.622542 -24.428
16 1 4.83897 -1.51838 -24.1763
17 1 4.79439 -1.67674 -23.2653
18 1 4.01725 -1.39277 -22.9794
19 1 3.82404 -2.14164 -23.518
20 1 2.88827 -2.3473 -23.2731
21 1 2.46677 -1.99093 -22.5363
22 1 1.99137 -2.1584 -21.7279
23 1 2.30393 -2.48001 -20.8556
24 1 2.05753 -2.29841 -19.9614
25 1 1.08299 -2.19419 -19.9798
26 1 1.07495 -2.79239 -19.2545
27 1 0.332808 -3.26839 -18.9063
28 1 0.276869 -4.15815 -19.2149
29 1 -0.601226 -4.2532 -18.8606
30 1 -1.31498 -3.73751 -19.1347
31 1 -2.00555 -4.46967 -19.2579
32 1 -2.80023 -4.41462 -19.6488
ITEM: TIMESTEP
1480000
ITEM: NUMBER OF ATOMS
32
ITEM: BOX BOUNDS mm mm mm
-1.6000000000000000e+01 1.6000000000000000e+01
-1.6000000000000000e+01 1.6000000000000000e+01
-2.5254361727988105e+01 1.6000000000000000e+01
ITEM: ATOMS id type x y z
1 1 2.74287 -4.15704 -25.251
2 1 2.04726 -4.38972 -24.633
3 1 1.77283 -3.87932 -23.9302
4 1 2.36216 -4.26851 -23.3498
5 1 2.94569 -4.24723 -22.653
6 1 3.31729 -3.51257 -22.2622
7 1 3.86531 -2.89722 -21.7519
8 1 3.86416 -3.69663 -21.3058
9 1 4.38425 -3.34738 -20.5649
10 1 5.2374 -2.75612 -20.5571
11 1 4.83457 -2.16416 -21.2417
12 1 4.43942 -1.94556 -20.4445
13 1 5.05656 -1.21048 -20.4597
14 1 4.89308 -0.551657 -19.7714
15 1 4.2613 0.168478 -19.9139
16 1 4.62102 0.471908 -19.081
17 1 3.94423 -0.0415267 -18.682
18 1 3.56363 0.60888 -19.2304
19 1 3.16648 1.19507 -18.5754
20 1 2.70733 1.46345 -17.7926
21 1 1.86909 1.56072 -17.4406
22 1 1.4764 1.2542 -18.2861
23 1 1.20709 1.36586 -19.1721
24 1 0.221153 1.54814 -19.2255
25 1 0.139123 1.90257 -18.318
26 1 0.141358 2.65926 -17.7959
27 1 1.00019 2.4407 -18.1078
28 1 1.44953 3.11392 -18.6088
29 1 1.64694 3.98287 -18.3192
30 1 1.08835 3.67057 -17.6188
31 1 1.56023 3.30816 -16.9367
32 1 1.38607 3.33695 -16.0135
ITEM: TIMESTEP
1490000
ITEM: NUMBER OF ATOMS
32
ITEM: BOX BOUNDS mm mm mm
-1.6000000000000000e+01 1.6000000000000000e+01
-1.6000000000000000e+01 1.6000000000000000e+01
-2.6224733598100126e+01 1.6000000000000000e+01
ITEM: ATOMS id type x y z
1 1 2.94351 2.73249 -24.5594
2 1 3.32724 1.99914 -24.1341
3 1 3.39832 1.35365 -23.5092
4 1 3.95124 0.53041 -23.3492
5 1 4.17914 -0.195062 -23.8687
6 1 3.51153 -0.87983 -24.0038
7 1 2.93119 -1.59762 -23.7959
8 1 2.20346 -0.994479 -23.8801
9 1 1.54667 -0.572011 -24.402
10 1 1.08176 0.202336 -24.5208
11 1 0.276581 0.645237 -24.2548
12 1 -0.311962 0.0471615 -23.8132
13 1 -1.03633 0.134264 -23.2078
14 1 -1.71255 0.756586 -23.5795
15 1 -1.50168 1.69581 -23.5473
16 1 -1.41602 1.56997 -22.5985
17 1 -1.34322 1.3021 -21.6959
18 1 -2.12128 0.895882 -21.1947
19 1 -2.7265 1.1024 -21.8805
20 1 -3.25648 1.87089 -21.7879
21 1 -2.95287 1.85941 -22.6445
22 1 -3.487 1.17336 -22.9681
23 1 -3.76603 2.01799 -23.4518
24 1 -3.47076 1.55373 -24.2672
25 1 -2.5408 1.38781 -24.2233
26 1 -2.00207 1.87651 -24.7893
27 1 -1.41146 2.30942 -25.3432
28 1 -0.978962 2.5918 -26.2214
29 1 -0.558565 3.20739 -25.6641
30 1 -0.674805 4.06726 -25.2382
31 1 -1.54028 4.2151 -24.8628
32 1 -2.08735 4.50075 -24.1364
ITEM: TIMESTEP
1500000
ITEM: NUMBER OF ATOMS
32
ITEM: BOX BOUNDS mm mm mm
-1.6000000000000000e+01 1.6000000000000000e+01
-1.6000000000000000e+01 1.6000000000000000e+01
-2.8411201465733189e+01 1.6000000000000000e+01
ITEM: ATOMS id type x y z
1 1 -0.605922 7.95678 -20.7505
2 1 -0.760233 8.80466 -20.9545
3 1 -1.62464 9.03252 -21.307
4 1 -1.9927 8.3563 -21.8771
5 1 -1.89134 8.61075 -22.7865
6 1 -2.17741 7.88724 -23.3522
7 1 -2.94862 7.4877 -23.6408
8 1 -2.23748 6.83904 -23.574
9 1 -1.43326 6.49914 -23.2809
10 1 -1.77151 5.65237 -23.4643
11 1 -1.2194 6.02829 -24.1261
12 1 -1.40402 5.78387 -25.068
13 1 -1.2902 5.26386 -25.8969
14 1 -1.33294 4.4554 -25.494
15 1 -1.86593 4.31469 -26.2118
16 1 -2.64852 3.84795 -26.0139
17 1 -3.21812 3.1348 -26.347
18 1 -4.09518 3.31736 -26.0288
19 1 -4.29538 3.78015 -26.8766
20 1 -4.60278 3.6412 -27.7908
21 1 -3.72575 3.4293 -28.152
22 1 -3.42053 2.58852 -28.4078
23 1 -3.46059 1.98171 -27.6986
24 1 -4.27417 1.42747 -27.7361
25 1 -4.91446 1.02734 -27.1361
26 1 -5.51422 0.340932 -26.7477
27 1 -6.07414 -0.339232 -26.4094
28 1 -6.52118 0.428111 -26.2452
29 1 -6.57393 1.30548 -26.7945
30 1 -6.47957 2.18859 -27.0715
31 1 -6.467 2.98253 -26.5712
32 1 -7.25442 3.20643 -27.1437
ITEM: TIMESTEP
1510000
ITEM: NUMBER OF ATOMS
32
ITEM: BOX BOUNDS mm mm mm
-1.6000000000000000e+01 1.6000000000000000e+01
-1.6000000000000000e+01 1.6000000000000000e+01
-2.6765079301819316e+01 1.6000000000000000e+01
ITEM: ATOMS id type x y z
1 1 0.0257132 10.5967 -24.5006
2 1 -0.49767 10.1113 -23.9303
3 1 -0.910835 9.32155 -23.6642
4 1 -1.59197 9.41997 -24.3447
5 1 -2.4164 9.2322 -24.6163
6 1 -3.1533 8.89208 -24.0368
7 1 -3.23848 8.17176 -23.4991
8 1 -3.30904 7.27064 -23.731
9 1 -2.55361 6.74144 -23.2018
10 1 -2.20225 5.92698 -22.999
11 1 -2.20745 5.61406 -23.8519
12 1 -1.66756 5.20485 -24.4683
13 1 -1.32526 4.305 -24.6535
14 1 -1.22133 3.35092 -24.8051
15 1 -1.62149 3.06222 -25.5861
16 1 -2.33546 2.75221 -26.1025
17 1 -2.74233 2.15342 -26.7617
18 1 -3.57456 2.47966 -26.5115
19 1 -4.40314 2.61052 -26.0748
20 1 -4.38389 1.65011 -25.8508
21 1 -4.20773 0.931521 -25.2338
22 1 -4.60877 0.0855351 -24.9554
23 1 -5.45676 -0.312613 -24.9726
24 1 -5.63056 -0.391634 -25.9098
25 1 -6.45627 -0.887014 -25.7776
26 1 -6.6151 -0.725297 -24.852
27 1 -7.39974 -0.483613 -24.3434
28 1 -7.26177 -1.34202 -24.077
29 1 -8.02997 -1.7614 -23.9586
30 1 -8.93854 -1.75624 -24.2126
31 1 -9.59118 -1.10885 -24.099
32 1 -10.1012 -1.91928 -24.0778
ITEM: TIMESTEP
1520000
ITEM: NUMBER OF ATOMS
32
ITEM: BOX BOUNDS mm mm mm
-1.6000000000000000e+01 1.6000000000000000e+01
-1.6000000000000000e+01 1.6000000000000000e+01
-2.5348982886941215e+01 1.6000000000000000e+01
ITEM: ATOMS id type x y z
1 1 -9.48144 7.77554 -23.9564
2 1 -10.2854 7.84887 -23.4851
3 1 -10.4021 6.99752 -23.0267
4 1 -9.68161 7.36314 -22.4986
5 1 -8.80389 7.54432 -22.1906
6 1 -8.10147 7.95395 -21.7055
7 1 -7.90437 7.87465 -22.6104
8 1 -7.02966 8.17901 -22.508
9 1 -6.05556 8.17186 -22.3199
10 1 -5.9071 7.20053 -22.3128
11 1 -5.13694 7.10706 -21.742
12 1 -4.38507 7.32516 -22.2668
13 1 -3.77041 6.69178 -22.6785
14 1 -2.90215 6.52605 -22.7012
15 1 -2.54535 5.72699 -23.0585
16 1 -2.22926 4.87522 -23.3152
17 1 -2.03921 4.29412 -24.0237
18 1 -3.00386 4.34758 -23.8166
19 1 -3.44446 4.89922 -23.2136
20 1 -3.97009 5.50044 -23.6807
21 1 -3.47521 6.20674 -24.1211
22 1 -4.07072 6.90101 -23.9454
23 1 -4.51646 7.39148 -23.3021
24 1 -4.84618 8.27192 -23.185
25 1 -4.75394 9.07509 -23.6747
26 1 -4.46087 9.38581 -24.4793
27 1 -4.20984 9.64405 -25.3456
28 1 -3.8658 10.5229 -25.3293
29 1 -2.98238 10.6833 -25.1665
30 1 -2.82261 10.7029 -24.2262
31 1 -3.04636 10.9264 -23.3774
32 1 -2.97076 11.829 -23.5562
ITEM: TIMESTEP
1530000
ITEM: NUMBER OF ATOMS
32
ITEM: BOX BOUNDS mm mm mm
-1.6000000000000000e+01 1.6000000000000000e+01
-1.6000000000000000e+01 1.6306547752628994e+01
-2.5525741124389157e+01 1.6000000000000000e+01
ITEM: ATOMS id type x y z
1 1 -3.98379 16.3033 -18.2326
2 1 -4.52544 15.7881 -18.7891
3 1 -3.78895 16.0769 -19.3775
4 1 -3.79439 15.1764 -19.7281
5 1 -2.84779 14.9232 -19.5714
6 1 -1.99507 14.6158 -19.427
7 1 -1.26176 13.9943 -19.4212
8 1 -1.60435 13.9464 -18.5928
9 1 -2.33168 13.3311 -18.5312
10 1 -3.14169 12.7588 -18.3199
11 1 -2.43867 12.0419 -18.1274
12 1 -2.48085 12.3174 -19.0548
13 1 -1.71068 11.7608 -18.9
14 1 -1.79697 11.8123 -19.8783
15 1 -1.7966 10.8459 -19.9627
16 1 -1.27921 10.3587 -20.6229
17 1 -1.95417 9.7047 -20.7671
18 1 -1.12782 9.2337 -20.8574
19 1 -1.11706 8.44362 -21.3571
20 1 -0.390131 7.98657 -21.8699
21 1 -0.102422 8.32748 -22.6732
22 1 -0.112458 7.61536 -23.3591
23 1 -0.803691 7.59192 -23.9437
24 1 -0.855845 7.34318 -24.877
25 1 -0.449522 8.23339 -24.9145
26 1 -0.920544 8.78048 -25.5224
27 1 -1.11442 9.65004 -25.3119
28 1 -1.9766 9.3964 -25.0072
29 1 -2.03784 8.54372 -24.6258
30 1 -1.88665 8.79656 -23.7709
31 1 -1.93968 7.80029 -23.6619
32 1 -2.77628 8.22965 -23.7345
ITEM: TIMESTEP
1540000
ITEM: NUMBER OF ATOMS
32
ITEM: BOX BOUNDS mm mm mm
-1.6000000000000000e+01 1.6000000000000000e+01
-1.6000000000000000e+01 1.8837537668309221e+01
-2.4549940871182475e+01 1.6000000000000000e+01
ITEM: ATOMS id type x y z
1 1 -6.46852 18.7954 -17.4814
2 1 -5.80149 18.8343 -18.1045
3 1 -5.6379 18.6809 -19.0673
4 1 -5.72465 17.7712 -19.1574
5 1 -4.80899 17.345 -19.0388
6 1 -4.34976 16.6033 -19.2989
7 1 -5.2067 16.3568 -19.4137
8 1 -4.82609 15.4818 -19.3505
9 1 -4.1944 15.3974 -18.6246
10 1 -3.48723 14.9916 -19.0568
11 1 -2.94453 14.2518 -19.4324
12 1 -3.12102 13.7714 -20.1748
13 1 -2.2241 13.6973 -20.1041
14 1 -1.42752 13.9055 -19.7235
15 1 -0.583629 13.6178 -19.3886
16 1 -0.395716 12.8067 -19.7568
17 1 -0.172955 12.0673 -20.3949
18 1 -0.374874 11.3872 -19.7312
19 1 -0.094678 10.7344 -19.1758
20 1 0.415616 10.426 -19.9459
21 1 0.806665 9.5563 -20.227
22 1 0.613127 10.0322 -20.9913
23 1 -0.291581 9.80237 -21.0124
24 1 -1.01459 10.3984 -21.2914
25 1 -1.36367 11.0536 -21.8584
26 1 -0.627243 11.5937 -21.9983
27 1 -0.459033 11.054 -22.7622
28 1 -0.852804 10.7057 -23.5812
29 1 0.0446251 10.7713 -23.8346
30 1 0.227764 9.96033 -23.4151
31 1 0.749433 9.31843 -23.8111
32 1 1.28941 9.42888 -24.5466
ITEM: TIMESTEP
1550000
ITEM: NUMBER OF ATOMS
32
ITEM: BOX BOUNDS mm mm mm
-1.6000000000000000e+01 1.6000000000000000e+01
-1.6000000000000000e+01 1.7577936375508365e+01
-2.0399512488627256e+01 1.6000000000000000e+01
ITEM: ATOMS id type x y z
1 1 -6.02742 13.4918 -19.6369
2 1 -6.8265 13.8869 -19.3088
3 1 -6.44828 14.7109 -19.5905
4 1 -6.89477 15.0955 -20.3961
5 1 -7.00551 15.8176 -19.7648
6 1 -7.38109 16.4143 -20.3702
7 1 -7.64863 16.9003 -19.6055
8 1 -7.25708 17.5376 -18.9354
9 1 -6.58508 17.5747 -18.3339
10 1 -6.50373 16.7739 -17.8943
11 1 -7.36204 16.6353 -17.5065
12 1 -6.93752 16.2537 -16.7511
13 1 -7.59751 16.1329 -15.995
14 1 -8.26937 15.9692 -15.4192
15 1 -8.38611 16.8483 -15.0808
16 1 -7.64632 17.2554 -14.7513
17 1 -7.36682 17.1568 -13.838
18 1 -6.47635 16.6924 -13.9631
19 1 -6.23266 15.8817 -14.4415
20 1 -5.25954 15.7554 -14.4604
21 1 -5.46678 14.8992 -14.1701
22 1 -4.71951 14.4231 -14.084
23 1 -4.39979 13.5475 -13.9977
24 1 -4.24894 12.7426 -13.5809
25 1 -3.42081 12.9037 -13.9641
26 1 -2.93867 12.8742 -14.7947
27 1 -2.77846 13.0215 -15.69
28 1 -2.62409 13.5436 -16.4127
29 1 -1.74514 13.7839 -16.6197
30 1 -0.825993 14.0902 -16.6861
31 1 -1.35258 13.9874 -17.4896
32 1 -0.885562 14.2252 -18.2689
ITEM: TIMESTEP
1560000
ITEM: NUMBER OF ATOMS
32
ITEM: BOX BOUNDS mm mm mm
-1.6000000000000000e+01 1.6000000000000000e+01
-1.6000000000000000e+01 1.9987110420292666e+01
-1.9431480206499955e+01 1.6000000000000000e+01
ITEM: ATOMS id type x y z
1 1 -7.7813 10.7261 -19.3585
2 1 -8.23986 10.8676 -18.5893
3 1 -7.34314 11.0319 -18.2899
4 1 -6.71721 11.0159 -17.6043
5 1 -6.82794 11.9756 -17.8081
6 1 -6.80552 12.7027 -18.4006
7 1 -6.23501 11.9759 -18.6356
8 1 -5.48013 11.3972 -18.8091
9 1 -5.0507 10.6554 -18.4593
10 1 -5.23072 11.3029 -17.8029
11 1 -4.82117 11.7322 -17.1003
12 1 -5.3465 12.25 -16.4997
13 1 -5.36429 13.1427 -16.2073
14 1 -5.44879 13.9645 -15.8287
15 1 -5.12388 14.6597 -16.4268
16 1 -5.97479 14.7852 -16.7257
17 1 -6.11999 15.1864 -17.6451
18 1 -5.8343 16.0697 -17.6415
19 1 -6.11231 16.4145 -18.5051
20 1 -6.16585 16.3169 -19.3892
21 1 -5.64629 17.0892 -19.1591
22 1 -6.07131 17.8318 -19.4281
23 1 -5.77517 18.1802 -18.5846
24 1 -5.94483 19.1629 -18.5363
25 1 -5.19837 18.8299 -18.0174
26 1 -4.41129 18.2216 -18.0311
27 1 -4.22154 18.0915 -17.1446
28 1 -3.64194 18.1955 -16.3591
29 1 -3.41008 18.673 -15.6051
30 1 -3.29646 19.1514 -14.8375
31 1 -3.54619 19.9839 -15.2259
32 1 -2.77886 19.9134 -15.7615
ITEM: TIMESTEP
1570000
ITEM: NUMBER OF ATOMS
32
ITEM: BOX BOUNDS mm mm mm
-1.6000000000000000e+01 1.6000000000000000e+01
-1.6000000000000000e+01 1.9422269398752242e+01
-2.1214628207036913e+01 1.6000000000000000e+01
ITEM: ATOMS id type x y z
1 1 -4.40563 15.9118 -12.4281
2 1 -4.10752 15.3632 -13.15
3 1 -3.41767 14.9386 -13.6277
4 1 -3.446 15.065 -14.5863
5 1 -4.09934 15.0334 -15.2708
6 1 -4.64675 15.0179 -16.0346
7 1 -4.30141 15.4093 -16.7813
8 1 -3.91915 15.5653 -17.6548
9 1 -3.81699 15.1522 -18.4993
10 1 -4.31943 14.8318 -19.2678
11 1 -3.89835 14.8131 -20.1375
12 1 -3.14954 14.272 -20.0038
13 1 -2.97919 14.7904 -20.7732
14 1 -2.11325 14.635 -21.2112
15 1 -1.72398 15.4905 -21.1571
16 1 -2.16637 16.3053 -21.2073
17 1 -2.68903 17.0201 -20.9306
18 1 -2.55857 17.967 -20.8095
19 1 -2.34207 18.2156 -19.868
20 1 -1.44539 17.9971 -19.6772
21 1 -0.999402 18.8125 -19.7956
22 1 -0.60047 18.5923 -18.9853
23 1 0.0496089 19.2295 -18.5807
24 1 0.726353 19.4191 -17.9408
25 1 0.493388 18.8398 -17.2675
26 1 0.729845 17.9766 -16.9809
27 1 1.55186 18.4698 -17.0451
28 1 2.14455 17.7922 -17.3577
29 1 1.98174 17.2605 -16.6045
30 1 2.53612 16.5382 -16.8544
31 1 3.0715 17.2656 -16.92
32 1 3.47527 18.165 -17.1538
ITEM: TIMESTEP
1580000
ITEM: NUMBER OF ATOMS
32
ITEM: BOX BOUNDS mm mm mm
-1.6000000000000000e+01 1.6000000000000000e+01
-1.6000000000000000e+01 2.2176034455921332e+01
-2.1660710451342890e+01 1.6000000000000000e+01
ITEM: ATOMS id type x y z
1 1 -7.3427 18.3968 -16.4137
2 1 -8.06238 18.0344 -16.9639
3 1 -8.21126 18.6585 -17.6328
4 1 -7.71143 19.2543 -18.1702
5 1 -7.70843 19.9566 -17.5205
6 1 -8.40419 20.3465 -18.0719
7 1 -8.3282 19.8639 -18.9072
8 1 -7.47789 19.6134 -19.1834
9 1 -6.71035 19.914 -19.6857
10 1 -6.12357 20.0685 -20.3944
11 1 -5.30049 19.7621 -20.0662
12 1 -4.7329 20.3875 -20.5612
13 1 -4.18666 20.3138 -19.7977
14 1 -4.46893 21.2167 -19.7902
15 1 -3.60988 21.6662 -19.4306
16 1 -2.69632 21.7836 -19.6674
17 1 -2.53777 22.1728 -20.5075
18 1 -2.43135 21.3383 -20.8489
19 1 -1.96126 20.8174 -20.229
20 1 -1.04656 20.578 -20.3217
21 1 -0.979859 20.2768 -21.2488
22 1 -0.501432 19.6254 -21.6573
23 1 0.398524 19.6819 -21.3709
24 1 1.14753 20.2443 -20.9308
25 1 0.456711 20.0365 -20.2818
26 1 0.803121 19.3971 -19.6972
27 1 0.21338 19.4015 -18.9572
28 1 -0.283562 18.9762 -18.2929
29 1 -0.872158 18.4372 -17.8147
30 1 -1.21829 18.2429 -16.9535
31 1 -2.19164 18.2288 -16.9317
32 1 -1.86269 19.1159 -17.0893
ITEM: TIMESTEP
1590000
ITEM: NUMBER OF ATOMS
32
ITEM: BOX BOUNDS mm mm mm
-1.6000000000000000e+01 1.6000000000000000e+01
-1.6000000000000000e+01 2.5891476133691416e+01
-2.1787531962261291e+01 1.6000000000000000e+01
ITEM: ATOMS id type x y z
1 1 -3.76766 17.9638 -19.0812
2 1 -3.41992 17.1287 -19.0556
3 1 -2.4947 17.2062 -19.4125
4 1 -2.68591 17.7318 -20.1838
5 1 -3.29075 17.9969 -20.8415
6 1 -3.73567 17.7372 -21.6175
7 1 -4.61069 18.0564 -21.5839
8 1 -4.46003 18.1783 -20.6582
9 1 -5.30074 18.4472 -20.4195
10 1 -5.31253 19.1929 -19.8027
11 1 -5.5389 20.174 -19.602
12 1 -5.95156 20.584 -20.3524
13 1 -5.33065 20.1647 -20.8687
14 1 -4.55713 19.6459 -21.0917
15 1 -4.10596 20.4382 -21.1186
16 1 -4.06888 20.9945 -20.3506
17 1 -4.70254 21.6139 -20.0215
18 1 -4.68111 22.4819 -20.339
19 1 -4.95685 21.9421 -21.0713
20 1 -5.94335 22.0865 -21.1667
21 1 -6.03268 23.0446 -21.1771
22 1 -6.68583 22.5893 -21.7126
23 1 -7.45036 22.0876 -21.3994
24 1 -8.14298 21.5033 -21.6844
25 1 -8.77118 22.117 -21.3151
26 1 -8.3848 22.9332 -21.4026
27 1 -9.06824 23.4828 -21.1975
28 1 -9.61516 24.0434 -21.7432
29 1 -10.0844 24.8247 -21.7842
30 1 -10.2489 25.7798 -21.6753
31 1 -10.6057 25.8883 -20.7704
32 1 -10.4455 25.1592 -20.1633
ITEM: TIMESTEP
1600000
ITEM: NUMBER OF ATOMS
32
ITEM: BOX BOUNDS mm mm mm
-1.6000000000000000e+01 1.6000000000000000e+01
-1.6000000000000000e+01 2.1354118123955029e+01
-2.1162143855634060e+01 1.6000000000000000e+01
ITEM: ATOMS id type x y z
1 1 -7.54681 20.4976 -20.482
2 1 -7.82617 20.2264 -19.6269
3 1 -8.47301 20.8923 -19.5454
4 1 -8.6646 21.2824 -18.7137
5 1 -8.31935 20.8497 -17.9831
6 1 -7.95503 20.9133 -17.1275
7 1 -7.16779 21.3509 -17.5408
8 1 -6.8333 20.4685 -17.4975
9 1 -6.6173 19.9407 -18.2713
10 1 -5.78063 19.6385 -18.5614
11 1 -5.88754 19.6125 -19.4585
12 1 -5.01232 19.3927 -19.7317
13 1 -4.405 18.6998 -19.3901
14 1 -3.69357 19.1094 -18.8908
15 1 -3.44298 19.6218 -18.0898
16 1 -2.90385 19.1223 -17.5764
17 1 -2.58513 18.3104 -17.9023
18 1 -1.85634 17.8767 -17.4672
19 1 -2.64366 17.3729 -17.3874
20 1 -3.47377 17.3553 -17.8735
21 1 -3.64335 17.3028 -18.7728
22 1 -2.95893 17.7192 -19.2352
23 1 -2.54513 18.311 -19.8428
24 1 -3.03573 17.8786 -20.5217
25 1 -2.40497 17.2553 -20.7329
26 1 -2.69643 16.4092 -21.0773
27 1 -3.18827 15.9218 -20.4379
28 1 -4.02766 15.5377 -20.1962
29 1 -4.31568 14.6288 -20.3303
30 1 -4.86417 14.0844 -20.9123
31 1 -4.27051 13.4353 -21.1588
32 1 -3.54439 12.8564 -20.9886
ITEM: TIMESTEP
1610000
ITEM: NUMBER OF ATOMS
32
ITEM: BOX BOUNDS mm mm mm
-1.6000000000000000e+01 1.6000000000000000e+01
-1.6000000000000000e+01 2.0321836038678658e+01
-2.3942268709852623e+01 1.6000000000000000e+01
ITEM: ATOMS id type x y z
1 1 0.458436 19.8168 -16.0322
2 1 -0.144929 20.1044 -16.7614
3 1 -0.278214 19.4698 -17.4871
4 1 0.0245188 19.0535 -18.2935
5 1 -0.46806 19.4432 -18.9807
6 1 -1.34456 19.2719 -19.2589
7 1 -1.88436 19.8118 -18.7271
8 1 -2.49855 19.8048 -17.9894
9 1 -3.15213 19.1959 -18.342
10 1 -3.52528 18.4863 -18.865
11 1 -3.21926 17.6848 -19.335
12 1 -3.41353 17.4923 -20.2476
13 1 -4.36691 17.2948 -20.0258
14 1 -4.74718 18.1679 -19.8899
15 1 -5.19767 18.9382 -19.5613
16 1 -5.59368 19.6555 -20.0623
17 1 -6.17328 20.3186 -20.3816
18 1 -6.10449 19.7418 -21.152
19 1 -6.35635 18.8869 -21.6318
20 1 -7.13352 19.3926 -21.6837
21 1 -8.04155 19.5166 -21.7632
22 1 -8.24012 18.7167 -22.1732
23 1 -8.26359 18.5834 -23.0955
24 1 -7.39921 18.1465 -23.2855
25 1 -6.68335 17.6625 -22.8984
26 1 -6.34206 16.7569 -22.9703
27 1 -5.88013 15.8376 -22.9986
28 1 -5.86707 15.6213 -23.9389
29 1 -4.93613 15.7204 -23.8281
30 1 -4.66761 16.5662 -23.6832
31 1 -4.66381 16.9623 -22.8351
32 1 -4.66522 17.8429 -23.1794
ITEM: TIMESTEP
1620000
ITEM: NUMBER OF ATOMS
32
ITEM: BOX BOUNDS mm mm mm
-1.6000000000000000e+01 1.6000000000000000e+01
-1.6000000000000000e+01 2.2372409884012786e+01
-2.3118208008063839e+01 1.6000000000000000e+01
ITEM: ATOMS id type x y z
1 1 -2.71454 20.7362 -17.4814
2 1 -3.15946 21.2919 -16.9
3 1 -3.71462 22.1122 -16.9189
4 1 -3.4081 22.3622 -17.8225
5 1 -2.74696 22.3692 -18.532
6 1 -3.29106 22.0166 -19.2684
7 1 -4.08681 21.9775 -19.8344
8 1 -3.91044 21.3185 -20.5289
9 1 -4.01433 20.9226 -19.7068
10 1 -4.69143 20.4364 -20.2401
11 1 -5.14109 19.6303 -20.6414
12 1 -4.41411 19.1085 -20.5908
13 1 -3.68798 18.5719 -20.273
14 1 -3.15832 19.2338 -20.7341
15 1 -2.33465 19.2903 -20.2378
16 1 -1.41394 18.9315 -20.4952
17 1 -0.787903 18.3659 -20.9415
18 1 -1.30478 17.8163 -20.3711
19 1 -1.00889 16.9097 -20.5879
20 1 -0.595196 16.6626 -21.373
21 1 -1.41602 16.448 -21.8658
22 1 -2.33485 16.5478 -21.6767
23 1 -3.0403 17.0111 -22.049
24 1 -3.62118 16.4958 -22.5938
25 1 -3.69302 15.7483 -23.1148
26 1 -3.21068 15.3001 -22.4409
27 1 -3.8606 14.5701 -22.2537
28 1 -4.64415 15.0175 -22.0271
29 1 -5.42564 15.6512 -22.0491
30 1 -6.36654 15.718 -21.7749
31 1 -7.21529 15.3933 -21.8227
32 1 -8.00818 14.9477 -21.5317
ITEM: TIMESTEP
1630000
ITEM: NUMBER OF ATOMS
32
ITEM: BOX BOUNDS mm mm mm
-1.6000000000000000e+01 1.6000000000000000e+01
-1.6000000000000000e+01 1.8802763529119634e+01
-2.4526511435375536e+01 1.6000000000000000e+01
ITEM: ATOMS id type x y z
1 1 -0.907924 14.0018 -24.5231
2 1 -0.935631 13.8131 -23.5769
3 1 -0.98082 12.9515 -23.1994
4 1 -0.264468 12.8901 -22.579
5 1 0.667313 13.0154 -22.5377
6 1 1.55906 13.0479 -22.6724
7 1 2.3276 13.5671 -22.5731
8 1 1.5467 14.1105 -22.6962
9 1 0.919194 14.3192 -22.0826
10 1 0.394071 14.6579 -22.734
11 1 0.820825 14.5475 -23.5668
12 1 1.27939 15.078 -24.209
13 1 1.77403 15.7427 -23.7856
14 1 2.43205 15.5565 -23.2168
15 1 2.39432 16.348 -22.7219
16 1 2.54425 17.0629 -23.3179
17 1 3.35092 17.402 -23.0245
18 1 4.18895 17.7083 -22.6376
19 1 4.87365 18.335 -22.6569
20 1 5.5412 18.3905 -21.9207
21 1 5.68737 17.5663 -21.4671
22 1 5.17976 16.9122 -21.051
23 1 5.09948 16.2516 -20.4427
24 1 4.66491 15.5385 -19.9801
25 1 4.18998 15.6889 -19.1355
26 1 3.46238 16.2674 -19.1193
27 1 3.65268 17.0557 -19.6225
28 1 4.00794 17.7303 -20.2113
29 1 3.25035 18.23 -19.933
30 1 2.55689 18.7996 -20.1494
31 1 2.84506 18.443 -20.9031
32 1 2.33887 18.4132 -21.6436
ITEM: TIMESTEP
1640000
ITEM: NUMBER OF ATOMS
32
ITEM: BOX BOUNDS mm mm mm
-1.6000000000000000e+01 1.6000000000000000e+01
-1.6000000000000000e+01 1.6000000000000000e+01
-2.1135652728643745e+01 1.6000000000000000e+01
ITEM: ATOMS id type x y z
1 1 5.34378 15.6703 -20.2208
2 1 5.20219 14.7676 -20.1631
3 1 5.10551 14.8802 -19.2275
4 1 4.34084 14.4627 -19.4699
5 1 3.70749 14.1052 -20.092
6 1 2.8175 14.349 -20.3077
7 1 2.33006 13.5596 -20.2501
8 1 1.4876 13.7948 -20.0288
9 1 0.627491 13.4804 -20.2883
10 1 0.702222 12.9363 -21.0579
11 1 0.29412 12.0742 -21.0379
12 1 -0.122017 11.604 -20.3673
13 1 -0.594779 10.8479 -20.019
14 1 0.00497399 10.2323 -19.5986
15 1 0.479597 10.7012 -20.2727
16 1 1.08161 11.1405 -20.8418
17 1 1.44341 11.9908 -21.1323
18 1 1.60923 12.8189 -20.6806
19 1 1.31178 12.3005 -19.9594
20 1 2.15558 12.2147 -19.4916
21 1 2.47683 11.784 -18.6889
22 1 2.70627 10.9724 -18.3689
23 1 3.46974 10.7573 -17.8864
24 1 4.32145 10.9468 -18.2304
25 1 5.1003 10.3791 -18.3663
26 1 5.16097 9.50431 -18.6956
27 1 5.62481 9.10394 -19.3819
28 1 6.26987 9.17499 -18.667
29 1 6.2721 8.2374 -18.4246
30 1 5.63019 7.95439 -17.8655
31 1 5.10605 7.18118 -18.2075
32 1 4.54633 6.56534 -18.7242
ITEM: TIMESTEP
1650000
ITEM: NUMBER OF ATOMS
32
ITEM: BOX BOUNDS mm mm mm
-1.6000000000000000e+01 1.6000000000000000e+01
-1.6000000000000000e+01 1.6000000000000000e+01
-2.3902185120263265e+01 1.6000000000000000e+01
ITEM: ATOMS id type x y z
1 1 2.32889 13.1046 -23.8988
2 1 2.72519 13.453 -23.1244
3 1 3.17436 13.4243 -22.3046
4 1 4.13576 13.3724 -22.2174
5 1 4.73973 14.0353 -22.5451
6 1 4.52264 14.9125 -22.7208
7 1 4.29979 14.9309 -21.7852
8 1 4.46631 15.7696 -21.4286
9 1 4.54244 15.2177 -20.6579
10 1 3.81923 14.7368 -20.2702
11 1 3.00293 15.26 -19.8943
12 1 2.49103 15.6214 -20.5918
13 1 2.31086 14.7146 -20.8024
14 1 2.67496 14.1787 -20.0466
15 1 2.86718 13.4756 -19.4238
16 1 2.57471 12.5999 -19.1516
17 1 1.91956 12.5709 -19.8211
18 1 1.44008 11.9415 -20.2609
19 1 0.815072 12.6201 -20.1279
20 1 0.396344 13.0727 -19.4424
21 1 -0.141578 12.4207 -19.0892
22 1 -0.891835 12.8873 -18.9663
23 1 -1.32249 13.1393 -18.1616
24 1 -1.24304 14.0737 -17.8923
25 1 -0.813611 13.8584 -17.1149
26 1 -0.188989 13.2787 -17.4348
27 1 -0.535127 12.542 -16.9428
28 1 -0.362568 11.7034 -16.644
29 1 0.0949282 11.1773 -16.0046
30 1 -0.441932 10.4588 -16.285
31 1 -0.845455 10.5214 -17.1116
32 1 -0.0237431 10.2713 -17.5185
ITEM: TIMESTEP
1660000
ITEM: NUMBER OF ATOMS
32
ITEM: BOX BOUNDS mm mm mm
-1.6000000000000000e+01 1.6000000000000000e+01
-1.6000000000000000e+01 1.6051148067169443e+01
-1.8917972802266526e+01 1.6000000000000000e+01
ITEM: ATOMS id type x y z
1 1 4.39406 10.0118 -18.9146
2 1 3.97316 9.49825 -18.355
3 1 4.17623 10.0991 -17.6426
4 1 4.73699 10.8645 -17.6018
5 1 4.70981 10.5281 -16.7486
6 1 5.43161 9.93686 -16.6279
7 1 5.32239 10.238 -15.7564
8 1 5.72452 11.085 -15.6302
9 1 5.19126 11.1141 -14.829
10 1 5.24306 12.0716 -14.7506
11 1 4.35161 12.4509 -14.627
12 1 3.90544 12.9428 -13.9536
13 1 3.87828 12.4564 -13.146
14 1 4.62863 12.6479 -12.5703
15 1 5.33617 13.3838 -12.4758
16 1 5.70011 14.0772 -12.9551
17 1 6.08536 14.7893 -12.3743
18 1 5.85042 14.9197 -11.4402
19 1 5.06153 14.6562 -11.8844
20 1 4.26504 14.6774 -12.3751
21 1 3.4142 14.6344 -11.9361
22 1 3.38053 14.6402 -11.0134
23 1 3.18705 15.2775 -10.4211
24 1 2.31848 15.6127 -10.6165
25 1 1.46764 15.3901 -10.8297
26 1 1.0261 14.8343 -11.456
27 1 0.878839 14.1547 -12.1181
28 1 1.32675 13.9225 -12.9292
29 1 1.79673 14.6324 -13.2842
30 1 2.13032 14.9185 -14.0613
31 1 1.58261 15.329 -14.7746
32 1 1.71986 16.0479 -15.3261
ITEM: TIMESTEP
1670000
ITEM: NUMBER OF ATOMS
32
ITEM: BOX BOUNDS mm mm mm
-1.6000000000000000e+01 1.6000000000000000e+01
-1.6000000000000000e+01 1.6000000000000000e+01
-1.7060408921485084e+01 1.6000000000000000e+01
ITEM: ATOMS id type x y z
1 1 9.56652 10.1746 -14.2727
2 1 9.96216 10.2043 -13.4669
3 1 10.3765 9.38338 -13.3766
4 1 11.2481 9.85822 -13.5459
5 1 11.5559 9.35999 -14.2886
6 1 11.5007 8.96932 -15.1633
7 1 11.7832 9.8858 -15.36
8 1 11.8116 10.7274 -15.8045
9 1 10.9494 11.042 -15.591
10 1 10.1858 10.5813 -15.5963
11 1 9.56012 10.1004 -16.1888
12 1 8.78824 9.59009 -15.9689
13 1 7.93621 9.30878 -16.1908
14 1 7.63112 9.56819 -15.2965
15 1 6.89583 8.95906 -15.2347
16 1 6.96493 9.62101 -14.4388
17 1 6.22917 9.86948 -14.9432
18 1 6.25136 10.6353 -15.4718
19 1 5.97462 11.4818 -15.1841
20 1 5.14439 11.0223 -15.2288
21 1 5.29925 10.7663 -16.145
22 1 4.47833 11.2012 -16.1205
23 1 4.06206 11.9926 -15.8944
24 1 3.2325 11.9277 -16.3203
25 1 2.46415 12.2372 -15.8857
26 1 1.55467 12.0838 -15.7321
27 1 1.03484 11.6917 -16.3833
28 1 0.972845 11.0919 -17.057
29 1 0.598166 10.4141 -16.4254
30 1 1.10312 9.89726 -15.8426
31 1 0.595242 9.11686 -15.7797
32 1 -0.300482 9.61865 -15.849
ITEM: TIMESTEP
1680000
ITEM: NUMBER OF ATOMS
32
ITEM: BOX BOUNDS mm mm mm
-1.6000000000000000e+01 1.6456997120737682e+01
-1.6000000000000000e+01 1.9402765075118662e+01
-1.6273737967621166e+01 1.6000000000000000e+01
ITEM: ATOMS id type x y z
1 1 15.7671 10.7341 -10.5272
2 1 15.8696 9.8557 -10.7903
3 1 15.6922 9.97462 -11.6678
4 1 16.418 9.88179 -12.3415
5 1 15.984 10.0573 -13.1726
6 1 15.5246 9.89361 -13.9792
7 1 15.6686 9.99539 -14.8983
8 1 16.4538 10.1108 -15.4511
9 1 16.1853 9.29844 -15.771
10 1 15.6621 9.8496 -16.2704
11 1 14.8611 10.292 -16.1278
12 1 14.2586 10.5899 -15.5326
13 1 13.7643 11.2269 -15.0682
14 1 13.1732 11.7072 -15.5905
15 1 12.7199 12.5222 -15.9106
16 1 13.0234 13.0003 -15.2038
17 1 12.2762 13.4799 -14.8123
18 1 12.3993 12.8653 -14.139
19 1 12.2829 12.5095 -13.2511
20 1 12.1224 13.2984 -12.7411
21 1 11.5977 14.0451 -12.5561
22 1 10.6448 13.9696 -12.425