ITEM: TIMESTEP
1330000
ITEM: NUMBER OF ATOMS
32
ITEM: BOX BOUNDS mm mm mm
-1.6000000000000000e+01 1.6000000000000000e+01
-1.6000000000000000e+01 3.9251347929819580e+01
-1.6000000000000000e+01 1.6000000000000000e+01
ITEM: ATOMS id type x y z
1 1 -3.8115 39.2481 -11.1642
2 1 -3.42043 38.8854 -11.9137
3 1 -3.32429 38.8953 -12.8886
4 1 -3.33889 37.9799 -13.2124
5 1 -3.10433 37.0706 -13.0678
6 1 -2.74138 36.238 -12.9343
7 1 -2.95898 35.3689 -12.6711
8 1 -2.91615 34.5019 -12.392
9 1 -3.05181 33.6979 -11.9463
10 1 -3.03356 32.9441 -11.4217
11 1 -2.97768 32.4229 -10.6185
12 1 -2.89136 32.0452 -9.77205
13 1 -2.03487 31.9459 -9.37518
14 1 -1.18168 31.7745 -8.96936
15 1 -0.304662 31.6229 -9.13047
16 1 0.589189 31.4019 -9.16468
17 1 1.26525 31.5757 -8.44062
18 1 2.03724 31.2985 -7.98234
19 1 2.94041 31.1946 -7.75491
20 1 3.75437 30.9412 -7.51448
21 1 4.6188 30.6411 -7.21471
22 1 5.46482 30.3122 -7.17343
23 1 6.03649 29.6935 -6.69684
24 1 6.84781 29.4529 -6.28138
25 1 7.60784 29.0333 -5.91828
26 1 8.52738 28.9081 -5.88937
27 1 9.46479 28.8094 -5.89543
28 1 10.2924 28.3712 -5.83581
29 1 11.2285 28.1056 -5.89867
30 1 12.0173 27.8171 -6.24941
31 1 12.4401 27.8041 -7.05134
32 1 12.9094 27.4465 -7.83325
ITEM: TIMESTEP
1340000
ITEM: NUMBER OF ATOMS
32
ITEM: BOX BOUNDS mm mm mm
-1.6000000000000000e+01 1.6000000000000000e+01
-1.6000000000000000e+01 3.8626313051965063e+01
-1.6000000000000000e+01 1.6000000000000000e+01
ITEM: ATOMS id type x y z
1 1 -5.69674 38.9396 -10.1982
2 1 -5.26663 38.1705 -9.90301
3 1 -5.18822 37.243 -9.95738
4 1 -5.18964 36.3306 -9.62148
5 1 -4.82115 35.5385 -9.35158
6 1 -4.97205 34.7178 -8.84994
7 1 -4.63395 34.3383 -8.11769
8 1 -3.97099 34.0225 -7.56066
9 1 -3.10661 33.8404 -7.19555
10 1 -2.35068 33.5879 -6.71163
11 1 -1.68749 33.2157 -6.18209
12 1 -0.994868 32.9537 -5.56332
13 1 -0.538664 32.8988 -4.74896
14 1 0.298193 33.2149 -4.39874
15 1 1.25549 33.2382 -4.1293
16 1 2.11288 33.0878 -3.7522
17 1 2.91963 33.1123 -3.30552
18 1 3.656 32.6815 -3.02387
19 1 4.47531 32.7398 -2.493
20 1 5.37793 32.7036 -2.30302
21 1 6.17451 32.3014 -2.10669
22 1 7.10417 32.063 -2.41101
23 1 7.97357 31.8642 -2.5686
24 1 8.83941 31.6513 -2.7856
25 1 9.66974 32.0475 -3.03704
26 1 10.5617 32.3457 -2.9956
27 1 11.4843 32.4666 -2.88867
28 1 12.2826 32.6115 -2.41581
29 1 13.2122 32.6714 -2.32135
30 1 14.1452 32.446 -2.22033
31 1 14.7812 31.7607 -2.39012
32 1 15.5645 31.3162 -2.74995
ITEM: TIMESTEP
1350000
ITEM: NUMBER OF ATOMS
32
ITEM: BOX BOUNDS mm mm mm
-1.6000000000000000e+01 1.6000000000000000e+01
-1.6000000000000000e+01 3.6434996721572709e+01
-1.6000000000000000e+01 1.6000000000000000e+01
ITEM: ATOMS id type x y z
1 1 -3.26635 36.3106 -14.0529
2 1 -2.68425 35.6389 -13.4235
3 1 -1.95306 35.0437 -13.3233
4 1 -1.29819 34.2996 -13.076
5 1 -0.618485 33.8786 -12.534
6 1 -0.40687 33.0578 -12.1524
7 1 -0.35476 32.1854 -11.708
8 1 0.0927692 31.8288 -10.9658
9 1 0.537915 31.6664 -10.1317
10 1 0.821916 31.5538 -9.22028
11 1 1.08805 31.3783 -8.30698
12 1 1.58449 30.8203 -7.80743
13 1 1.91051 30.1197 -7.30726
14 1 2.34072 29.368 -7.06174
15 1 3.16859 28.9908 -6.90206
16 1 3.86069 28.3949 -6.75226
17 1 4.67552 27.9625 -6.93471
18 1 5.58803 27.805 -6.94171
19 1 6.51964 27.9029 -7.05308
20 1 7.36837 28.2697 -6.98258
21 1 8.12886 28.6596 -7.34657
22 1 8.57142 29.4421 -7.3815
23 1 9.40996 29.9754 -7.27007
24 1 9.89975 30.5753 -6.69722
25 1 10.5981 30.8733 -6.13428
26 1 10.7207 31.5251 -5.47353
27 1 10.8311 32.4407 -5.20962
28 1 10.897 33.2054 -4.61993
29 1 11.2108 33.6233 -3.79334
30 1 11.6287 33.5619 -2.94677
31 1 12.46 33.954 -2.69753
32 1 13.2971 34.3276 -2.60093
ITEM: TIMESTEP
1360000
ITEM: NUMBER OF ATOMS
32
ITEM: BOX BOUNDS mm mm mm
-1.6000000000000000e+01 1.6000000000000000e+01
-1.6000000000000000e+01 3.5342785646165694e+01
-1.6000000000000000e+01 1.6000000000000000e+01
ITEM: ATOMS id type x y z
1 1 -4.9162 32.2607 -11.1507
2 1 -4.35182 32.7181 -11.6924
3 1 -3.7074 33.4048 -11.7466
4 1 -2.89187 33.8435 -11.7839
5 1 -1.96035 34.0471 -11.8666
6 1 -1.11661 33.6156 -11.7061
7 1 -0.310593 33.432 -11.0793
8 1 0.280813 33.208 -10.2925
9 1 0.736476 33.2332 -9.46677
10 1 1.45277 32.9986 -8.94834
11 1 2.28009 32.5237 -8.8469
12 1 2.35431 31.9768 -8.08986
13 1 2.48382 31.4805 -7.3245
14 1 2.59633 31.0383 -6.54225
15 1 3.48853 31.1749 -6.37483
16 1 4.23391 31.6764 -6.10658
17 1 4.83231 32.0151 -5.48406
18 1 5.23731 32.5416 -4.84596
19 1 5.72577 33.3628 -4.7892
20 1 5.25834 34.1649 -4.84506
21 1 4.96042 35.0954 -4.92832
22 1 4.57884 35.5797 -4.23582
23 1 3.89903 35.4015 -3.51014
24 1 3.23472 35.0952 -2.93253
25 1 3.12024 34.3418 -2.42883
26 1 3.14766 33.5514 -1.81682
27 1 3.28907 32.7322 -1.33754
28 1 3.31341 31.9453 -0.867714
29 1 3.71961 31.1318 -0.79116
30 1 4.09696 30.3386 -1.14758
31 1 4.10257 29.4735 -1.43071
32 1 4.07217 28.5972 -1.81413
ITEM: TIMESTEP
1370000
ITEM: NUMBER OF ATOMS
32
ITEM: BOX BOUNDS mm mm mm
-1.6000000000000000e+01 1.6000000000000000e+01
-1.6000000000000000e+01 3.9486908913834483e+01
-1.6000000000000000e+01 1.6000000000000000e+01
ITEM: ATOMS id type x y z
1 1 -3.80111 39.7919 -8.97468
2 1 -3.17706 39.1202 -9.14199
3 1 -2.51877 38.6576 -9.55219
4 1 -1.63103 38.392 -9.59363
5 1 -0.836166 37.9901 -9.44665
6 1 -0.350059 37.2711 -9.08974
7 1 -0.424976 36.3034 -9.14454
8 1 -0.36542 35.3664 -8.77131
9 1 -0.0332902 34.6073 -8.28537
10 1 0.181418 33.8227 -7.58941
11 1 0.90754 33.3061 -7.28834
12 1 1.62773 32.6329 -7.20878
13 1 1.88041 31.8428 -6.78247
14 1 1.82537 30.93 -6.41967
15 1 1.46081 30.1889 -5.89008
16 1 1.27867 29.5178 -5.27388
17 1 0.875368 29.4637 -4.47844
18 1 0.411486 29.8618 -3.72905
19 1 0.271446 29.908 -2.80815
20 1 0.419117 29.703 -1.838
21 1 0.367612 29.3155 -0.964724
22 1 0.630004 29.1609 -0.0532147
23 1 0.455449 28.9434 0.838491
24 1 0.392348 28.7845 1.74924
25 1 0.241346 28.9318 2.66279
26 1 0.49439 28.6382 3.51093
27 1 1.03978 28.4977 4.27949
28 1 1.13086 27.717 4.91241
29 1 1.92525 27.291 5.28395
30 1 2.79619 27.532 5.47517
31 1 3.73234 27.6649 5.47014
32 1 4.45162 27.7191 4.8021
ITEM: TIMESTEP
1380000
ITEM: NUMBER OF ATOMS
32
ITEM: BOX BOUNDS mm mm mm
-1.6000000000000000e+01 1.6000000000000000e+01
-1.6000000000000000e+01 4.4169742792455523e+01
-1.8022916350710890e+01 1.6000000000000000e+01
ITEM: ATOMS id type x y z
1 1 -6.00905 44.123 -17.99
2 1 -6.1419 43.266 -17.6411
3 1 -6.3095 42.3664 -17.5889
4 1 -6.31766 41.4991 -17.1661
5 1 -5.96334 40.8324 -16.6768
6 1 -5.71203 40.2207 -15.9835
7 1 -5.60357 39.4481 -15.4432
8 1 -5.36627 38.6637 -15.0459
9 1 -5.32229 38.0606 -14.364
10 1 -5.51273 37.5833 -13.5184
11 1 -5.54629 37.2016 -12.66
12 1 -5.42193 36.6688 -11.8784
13 1 -4.80144 36.1833 -11.3932
14 1 -4.08131 35.5632 -11.3771
15 1 -3.41585 35.0421 -10.953
16 1 -2.78076 34.3977 -10.7518
17 1 -2.13135 33.7456 -10.655
18 1 -1.54082 33.0838 -10.367
19 1 -0.78565 32.9887 -9.76679
20 1 -0.738489 33.0494 -8.81003
21 1 -0.638921 32.3671 -8.1152
22 1 -0.992386 31.9518 -7.33889
23 1 -1.14983 31.602 -6.48649
24 1 -0.907366 30.9784 -5.81179
25 1 -0.25421 30.5625 -5.35176
26 1 0.219485 30.0706 -4.70314
27 1 0.959393 29.4346 -4.54202
28 1 1.42457 28.6481 -4.7863
29 1 1.82207 27.9116 -5.15565
30 1 1.86154 26.986 -5.11082
31 1 1.81326 26.009 -4.98473
32 1 1.79809 25.1037 -5.01705
ITEM: TIMESTEP
1390000
ITEM: NUMBER OF ATOMS
32
ITEM: BOX BOUNDS mm mm mm
-1.6000000000000000e+01 1.6000000000000000e+01
-1.6000000000000000e+01 4.5324146846940494e+01
-1.8223688310398092e+01 1.6000000000000000e+01
ITEM: ATOMS id type x y z
1 1 1.45222 45.6592 -17.6678
2 1 0.53315 45.3039 -17.5848
3 1 -0.120631 44.9555 -16.993
4 1 -0.107747 44.6546 -16.1199
5 1 -0.107678 44.3899 -15.2437
6 1 -7.66913e-05 43.6039 -14.6848
7 1 -0.264653 42.8833 -14.1866
8 1 -0.0341583 42.2314 -13.5695
9 1 -0.277285 41.376 -13.335
10 1 -0.842148 40.7079 -13.1184
11 1 -1.36731 40.3202 -12.5108
12 1 -1.69785 40.0511 -11.7055
13 1 -1.9431 39.4253 -10.9852
14 1 -1.95156 38.6305 -10.3984
15 1 -1.84569 37.9121 -9.78345
16 1 -1.84626 37.1638 -9.29152
17 1 -1.68301 36.5854 -8.58636
18 1 -2.02377 36.013 -7.9591
19 1 -2.27553 35.1934 -7.64237
20 1 -2.2895 34.6546 -6.84144
21 1 -1.88022 34.0795 -6.13369
22 1 -1.38809 33.959 -5.3781
23 1 -0.597063 33.9548 -4.85516
24 1 0.295309 33.8059 -4.52675
25 1 0.910674 33.9581 -3.8447
26 1 0.914423 34.0651 -2.90327
27 1 1.16565 34.0402 -2.01599
28 1 1.56948 33.7947 -1.19976
29 1 2.09722 33.4213 -0.464523
30 1 2.36049 33.1463 0.427511
31 1 3.11983 32.8113 0.861096
32 1 3.87654 32.3154 1.09671
ITEM: TIMESTEP
1400000
ITEM: NUMBER OF ATOMS
32
ITEM: BOX BOUNDS mm mm mm
-1.6000000000000000e+01 1.6000000000000000e+01
-1.6000000000000000e+01 3.8288178944036773e+01
-1.6000000000000000e+01 1.6000000000000000e+01
ITEM: ATOMS id type x y z
1 1 -8.83809 37.8868 -5.58757
2 1 -8.30627 38.2432 -6.30442
3 1 -8.10983 38.3922 -7.21928
4 1 -7.78711 37.7259 -7.79348
5 1 -7.35474 37.0691 -8.3682
6 1 -7.0107 36.3363 -8.8449
7 1 -6.4581 35.5903 -8.90931
8 1 -5.62947 35.0809 -8.92179
9 1 -4.92479 34.4632 -8.99037
10 1 -4.39577 33.6224 -9.15675
11 1 -4.12093 32.7323 -9.27085
12 1 -3.94517 31.9585 -9.84935
13 1 -3.47339 31.5723 -10.5416
14 1 -3.06773 30.923 -11.0691
15 1 -2.21599 30.6343 -11.2388
16 1 -1.36678 30.6013 -11.626
17 1 -0.455534 30.8 -11.7854
18 1 0.297407 30.6198 -11.295
19 1 0.694748 30.691 -10.4237
20 1 0.785923 31.3878 -9.88997
21 1 1.07197 32.2168 -9.37289
22 1 1.18929 32.4779 -8.45384
23 1 0.872282 32.4029 -7.52104
24 1 0.484526 31.9985 -6.77439
25 1 -0.158542 31.8335 -6.0456
26 1 -0.992664 31.7963 -5.65938
27 1 -1.70612 31.8682 -4.998
28 1 -2.58173 31.5891 -4.65977
29 1 -3.19216 31.5624 -3.8998
30 1 -3.1239 32.0195 -3.05174
31 1 -2.82312 31.7397 -2.21468
32 1 -2.48356 31.485 -1.34118
ITEM: TIMESTEP
1410000
ITEM: NUMBER OF ATOMS
32
ITEM: BOX BOUNDS mm mm mm
-1.6000000000000000e+01 1.6000000000000000e+01
-1.6000000000000000e+01 3.4017522470162177e+01
-1.6802326972237836e+01 1.6000000000000000e+01
ITEM: ATOMS id type x y z
1 1 -5.78413 33.6045 -9.54374
2 1 -5.79662 32.7806 -10.0331
3 1 -5.84425 31.9262 -10.4319
4 1 -5.6292 31.3149 -11.208
5 1 -5.19474 30.9086 -11.953
6 1 -4.86478 30.7241 -12.8503
7 1 -4.78507 31.0652 -13.7368
8 1 -4.21895 31.6544 -14.2128
9 1 -3.93007 32.054 -15.0091
10 1 -3.33631 32.1244 -15.7432
11 1 -2.63107 32.6087 -16.1409
12 1 -2.29166 33.3112 -16.6863
13 1 -1.40702 33.4635 -16.8831
14 1 -0.739205 33.9845 -16.4919
15 1 0.0404812 33.9528 -15.8935
16 1 0.694751 33.7899 -15.1635
17 1 1.32046 33.4796 -14.494
18 1 2.02018 33.3061 -13.8515
19 1 2.86911 33.2167 -13.429
20 1 3.34733 32.7295 -12.8211
21 1 3.83171 32.4302 -12.0627
22 1 4.51463 32.5467 -11.4533
23 1 5.37372 32.3724 -11.0885
24 1 5.90428 31.8641 -10.4637
25 1 6.054 31.0848 -10.0087
26 1 6.65976 30.5577 -9.40686
27 1 7.46182 30.45 -8.89502
28 1 8.38134 30.3875 -8.73712
29 1 9.2476 30.1658 -9.00689
30 1 9.97929 29.6289 -9.34172
31 1 10.7614 29.1831 -9.68912
32 1 11.475 28.6874 -10.051
ITEM: TIMESTEP
1420000
ITEM: NUMBER OF ATOMS
32
ITEM: BOX BOUNDS mm mm mm
-1.6000000000000000e+01 1.6000000000000000e+01
-1.6000000000000000e+01 3.6580580193814725e+01
-1.6000000000000000e+01 1.6000000000000000e+01
ITEM: ATOMS id type x y z
1 1 -9.82822 31.8716 -11.4176
2 1 -9.25826 32.4508 -10.9493
3 1 -8.76674 33.2108 -11.2395
4 1 -8.18589 33.7758 -10.8313
5 1 -7.37647 34.2985 -10.9268
6 1 -6.55282 34.7813 -10.9534
7 1 -5.91982 35.4069 -11.4177
8 1 -5.07122 35.7877 -11.3626
9 1 -4.24423 36.2225 -11.6228
10 1 -3.5001 36.7294 -11.3573
11 1 -2.5695 36.5648 -11.1378
12 1 -1.83901 36.5366 -10.5737
13 1 -2.08332 35.6935 -10.2129
14 1 -2.16054 34.8196 -10.027
15 1 -1.69294 34.0298 -9.69144
16 1 -1.24801 33.5857 -8.9634
17 1 -0.702503 33.1663 -8.34382
18 1 -0.273371 32.7296 -7.59601
19 1 0.521485 32.2621 -7.18995
20 1 1.07824 31.6069 -6.70642
21 1 1.68901 30.8203 -6.71682
22 1 2.20817 30.1118 -6.33886
23 1 2.78756 29.4744 -5.85926
24 1 3.73561 29.3487 -5.95472
25 1 4.62822 29.6214 -6.01721
26 1 5.45061 29.9281 -6.39287
27 1 6.11777 30.0991 -7.03752
28 1 6.89014 30.0658 -7.49547
29 1 7.48152 29.6281 -8.06512
30 1 8.29324 29.7026 -8.636
31 1 9.179 29.6614 -8.87839
32 1 9.77614 29.4607 -8.18165
ITEM: TIMESTEP
1430000
ITEM: NUMBER OF ATOMS
32
ITEM: BOX BOUNDS mm mm mm
-1.6000000000000000e+01 1.6000000000000000e+01
-1.6000000000000000e+01 3.5214469541960518e+01
-1.6000000000000000e+01 1.6000000000000000e+01
ITEM: ATOMS id type x y z
1 1 -13.6935 28.8266 -8.2102
2 1 -13.7383 28.6168 -9.15677
3 1 -13.6944 28.563 -10.0983
4 1 -13.1788 28.4338 -10.8523
5 1 -12.4522 28.0342 -11.2939
6 1 -11.5794 27.7116 -11.3574
7 1 -10.9062 27.0531 -11.2151
8 1 -10.1262 26.5004 -11.3315
9 1 -9.38569 25.9552 -11.2323
10 1 -8.5313 25.4723 -11.2172
11 1 -8.08956 24.7195 -10.8531
12 1 -7.77915 23.9408 -10.445
13 1 -7.00897 24.1647 -9.93629
14 1 -6.27038 24.4788 -9.43763
15 1 -5.43343 24.6988 -9.05821
16 1 -4.91084 25.4632 -9.13177
17 1 -4.16964 25.6442 -9.66685
18 1 -3.42712 26.2013 -9.7603
19 1 -2.78419 26.8506 -9.98052
20 1 -2.05481 27.3775 -9.74586
21 1 -1.66543 28.1272 -9.28734
22 1 -1.41093 28.9959 -8.99351
23 1 -1.18409 29.9172 -8.96686
24 1 -0.896032 30.7895 -8.87723
25 1 -0.880011 31.6976 -8.63189
26 1 -1.10016 32.4127 -8.13511
27 1 -0.914575 32.738 -7.26613
28 1 -1.10804 33.0426 -6.38186
29 1 -1.56808 33.5391 -5.70364
30 1 -1.52621 34.2345 -5.05203
31 1 -1.20693 35.0001 -4.48543
32 1 -0.45318 35.5979 -4.27191
ITEM: TIMESTEP
1440000
ITEM: NUMBER OF ATOMS
32
ITEM: BOX BOUNDS mm mm mm
-1.6000000000000000e+01 1.6000000000000000e+01
-1.6000000000000000e+01 3.2333003439045235e+01
-1.6000000000000000e+01 1.6000000000000000e+01
ITEM: ATOMS id type x y z
1 1 0.841723 24.7504 -15.7741
2 1 0.291374 24.9379 -15.0367
3 1 -0.417945 24.9194 -14.4448
4 1 -1.1509 24.9447 -13.8782
5 1 -1.94249 25.1826 -13.4377
6 1 -2.48748 25.6376 -12.8455
7 1 -2.765 25.8853 -12.0179
8 1 -3.19014 25.8055 -11.2172
9 1 -3.39546 24.9933 -10.7895
10 1 -3.83202 24.3913 -10.1868
11 1 -3.66068 23.6239 -9.66671
12 1 -3.64377 22.729 -9.41215
13 1 -3.1078 21.913 -9.18157
14 1 -2.42086 21.2921 -8.86524
15 1 -1.61188 21.3427 -8.38119
16 1 -0.947455 21.3271 -7.72888
17 1 -0.049902 21.4882 -7.39283
18 1 0.673995 21.9377 -6.93685
19 1 1.26498 22.5277 -6.5099
20 1 1.43887 23.289 -6.06884
21 1 1.71589 24.1585 -6.15897
22 1 1.65911 25.0158 -6.36984
23 1 1.67608 25.9217 -6.66618
24 1 1.55845 26.8247 -6.85634
25 1 1.1257 27.5634 -7.21874
26 1 0.72165 28.3318 -7.52744
27 1 0.194002 29.1154 -7.44125
28 1 -0.333905 29.8611 -7.24309
29 1 -1.1923 30.2331 -7.24919
30 1 -1.88593 30.8427 -7.25104
31 1 -2.06281 31.7282 -7.56523
32 1 -2.31796 32.3297 -8.21109
ITEM: TIMESTEP
1450000
ITEM: NUMBER OF ATOMS
32
ITEM: BOX BOUNDS mm mm mm
-1.6000000000000000e+01 1.6000000000000000e+01
-1.6000000000000000e+01 3.8010525669076735e+01
-1.6000000000000000e+01 1.6000000000000000e+01
ITEM: ATOMS id type x y z
1 1 -3.93704 19.8032 -15.3768
2 1 -3.47567 20.5562 -15.0735
3 1 -3.30075 21.3819 -14.7451
4 1 -3.09196 22.2719 -14.5505
5 1 -2.86141 23.1848 -14.5173
6 1 -2.83349 24.0488 -14.2388
7 1 -3.15271 24.6317 -13.5434
8 1 -3.33675 25.1432 -12.7866
9 1 -3.36698 25.7541 -12.0336
10 1 -3.13083 26.5273 -11.5743
11 1 -3.04525 27.3018 -11.0627
12 1 -3.12825 27.9681 -10.3392
13 1 -2.85793 28.6983 -9.80384
14 1 -3.01185 29.1382 -8.98502
15 1 -3.06122 29.7609 -8.25769
16 1 -3.10398 29.7911 -7.27741
17 1 -2.89194 29.9719 -6.38271
18 1 -2.83068 30.2929 -5.47071
19 1 -3.04472 30.6448 -4.6838
20 1 -3.26661 31.0445 -3.87618
21 1 -3.56287 30.9266 -2.99426
22 1 -3.86311 31.2843 -2.22842
23 1 -4.56967 31.9207 -2.17903
24 1 -5.11967 32.5577 -1.87676
25 1 -5.59564 33.3549 -1.70365
26 1 -6.39066 33.8338 -1.87763
27 1 -6.56931 34.7372 -1.85842
28 1 -6.87416 35.5797 -2.10796
29 1 -7.00161 36.4914 -2.27466
30 1 -6.57776 37.2893 -2.53914
31 1 -6.16253 37.6336 -3.2776
32 1 -5.73625 37.492 -4.14337
ITEM: TIMESTEP
1460000
ITEM: NUMBER OF ATOMS
32
ITEM: BOX BOUNDS mm mm mm
-1.6000000000000000e+01 1.6000000000000000e+01
-1.6000000000000000e+01 3.5872440546196898e+01
-1.6000000000000000e+01 1.6000000000000000e+01
ITEM: ATOMS id type x y z
1 1 -8.42454 27.6544 -12.3209
2 1 -7.5413 27.8363 -12.5381
3 1 -6.79842 28.4151 -12.436
4 1 -6.05084 28.9753 -12.4441
5 1 -5.24347 29.4968 -12.2069
6 1 -4.38126 29.6549 -11.9341
7 1 -3.51811 29.2373 -11.957
8 1 -2.98997 28.6424 -11.5387
9 1 -2.70958 28.0053 -10.906
10 1 -2.57431 27.4038 -10.2547
11 1 -2.31305 26.8134 -9.53675
12 1 -2.06355 26.6188 -8.66299
13 1 -2.06068 26.7491 -7.70918
14 1 -2.51625 27.0478 -6.98227
15 1 -3.0666 27.3389 -6.26165
16 1 -3.20158 27.4531 -5.32538
17 1 -2.99758 27.4277 -4.41875
18 1 -2.42904 27.5892 -3.6393
19 1 -1.75588 27.7518 -2.97355
20 1 -1.39351 28.2007 -2.24192
21 1 -1.42005 28.9028 -1.6637
22 1 -1.7074 29.7542 -1.27903
23 1 -1.72534 30.6517 -1.0242
24 1 -1.4355 31.505 -0.705744
25 1 -1.64304 32.3643 -0.420642
26 1 -2.14786 33.1627 -0.265687
27 1 -2.57054 33.9091 0.20453
28 1 -3.12091 34.3973 0.790813
29 1 -3.66025 34.6835 1.54299
30 1 -4.53314 34.9985 1.82012
31 1 -5.28964 35.3877 2.13964
32 1 -5.93241 35.8459 2.65037
ITEM: TIMESTEP
1470000
ITEM: NUMBER OF ATOMS
32
ITEM: BOX BOUNDS mm mm mm
-1.6000000000000000e+01 1.6000000000000000e+01
-1.6000000000000000e+01 3.3935383222890628e+01
-1.6570437412590369e+01 1.6000000000000000e+01
ITEM: ATOMS id type x y z
1 1 -7.27606 20.3366 -16.8381
2 1 -7.33771 20.7082 -16.0042
3 1 -7.34281 21.371 -15.3266
4 1 -7.51371 21.8371 -14.4752
5 1 -7.40331 22.1725 -13.618
6 1 -6.84305 22.1366 -12.9252
7 1 -6.64729 22.1992 -12.0249
8 1 -6.56653 22.4 -11.1093
9 1 -6.31094 23.0574 -10.4771
10 1 -6.70339 23.8979 -10.5638
11 1 -7.11724 24.6717 -10.8567
12 1 -6.94712 25.5306 -10.4053
13 1 -6.36233 26.239 -10.1922
14 1 -5.635 26.5663 -9.72923
15 1 -4.94689 26.8807 -9.2705
16 1 -4.50318 27.1587 -8.4166
17 1 -4.1543 27.9375 -8.00892
18 1 -4.34331 28.7168 -7.51523
19 1 -4.38009 29.3611 -6.80913
20 1 -3.97321 29.8508 -6.16356
21 1 -3.75752 30.3182 -5.36157
22 1 -3.72858 30.8747 -4.66381
23 1 -3.89646 31.0212 -3.72767
24 1 -3.97014 31.4699 -2.91009
25 1 -3.84462 32.1269 -2.18881
26 1 -3.54429 32.8564 -1.69748
27 1 -2.91207 33.4914 -1.23972
28 1 -2.18364 34.0487 -1.24083
29 1 -1.30703 33.8715 -1.06911
30 1 -0.731913 33.1754 -1.0882
31 1 -0.352024 32.4838 -1.52692
32 1 0.0233242 31.6757 -1.41656
ITEM: TIMESTEP
1480000
ITEM: NUMBER OF ATOMS
32
ITEM: BOX BOUNDS mm mm mm
-1.6000000000000000e+01 1.6000000000000000e+01
-1.6000000000000000e+01 3.1784081310900415e+01
-1.6000000000000000e+01 1.6000000000000000e+01
ITEM: ATOMS id type x y z
1 1 -14.2587 24.9183 -13.8809
2 1 -13.6167 24.3088 -14.104
3 1 -13.049 23.5907 -14.3283
4 1 -12.1403 23.3405 -14.2084
5 1 -11.3505 23.3255 -13.756
6 1 -11.2067 22.87 -12.9211
7 1 -10.7837 22.9991 -12.0537
8 1 -10.6098 23.3744 -11.2456
9 1 -10.1877 23.3849 -10.3808
10 1 -9.45299 23.8966 -10.0009
11 1 -8.59371 24.3251 -9.75309
12 1 -7.94994 24.8659 -9.36285
13 1 -7.06225 25.0504 -9.42467
14 1 -6.20945 24.6829 -9.43309
15 1 -5.43038 24.1262 -9.29276
16 1 -4.52644 23.764 -9.27312
17 1 -3.62259 23.8237 -9.09016
18 1 -3.00038 24.3073 -8.58568
19 1 -2.42507 25.0022 -8.21256
20 1 -2.22563 25.869 -8.43801
21 1 -1.92373 26.4386 -9.13613
22 1 -2.28553 27.1215 -9.73989
23 1 -2.57259 28.0283 -9.84732
24 1 -2.84027 28.9221 -9.76347
25 1 -2.90296 29.7854 -9.54067
26 1 -2.35921 30.4841 -9.86957
27 1 -1.85689 31.1223 -10.3143
28 1 -1.05864 31.6224 -10.5182
29 1 -0.263882 31.8489 -10.9008
30 1 0.654404 31.6863 -10.8472
31 1 1.42344 31.3489 -10.5163
32 1 2.19578 31.5841 -11.0284
ITEM: TIMESTEP
1490000
ITEM: NUMBER OF ATOMS
32
ITEM: BOX BOUNDS mm mm mm
-2.1295826022110056e+01 1.6000000000000000e+01
-1.6000000000000000e+01 3.3418040195410022e+01
-1.6000000000000000e+01 1.6000000000000000e+01
ITEM: ATOMS id type x y z
1 1 -21.7399 24.4959 -12.108
2 1 -21.1002 24.1808 -11.4311
3 1 -20.3317 24.1725 -10.7745
4 1 -20.1593 24.0731 -9.86303
5 1 -19.6357 24.2464 -9.08452
6 1 -19.5293 24.6733 -8.2227
7 1 -19.021 25.0741 -7.52448
8 1 -18.4287 25.317 -6.87406
9 1 -17.8379 25.648 -6.2723
10 1 -17.4882 26.52 -6.20222
11 1 -17.3514 27.4079 -6.41069
12 1 -17.1098 28.1871 -6.91981
13 1 -16.8824 28.7446 -7.61793
14 1 -16.6711 28.6002 -8.49888
15 1 -16.4508 28.1798 -9.28064
16 1 -16.2659 27.7324 -10.122
17 1 -15.3422 27.7762 -10.399
18 1 -14.4162 27.6031 -10.623
19 1 -13.4973 27.9411 -10.8781
20 1 -12.7767 27.651 -11.509
21 1 -11.9295 27.2462 -11.4848
22 1 -11.0561 27.286 -11.0901
23 1 -10.1766 27.5189 -10.8626
24 1 -9.5589 28.1716 -10.5942
25 1 -8.85508 28.8452 -10.4093
26 1 -8.09093 29.3656 -10.3835
27 1 -7.15596 29.7163 -10.5933
28 1 -6.56023 30.1803 -11.1203
29 1 -6.11412 30.8737 -11.7224
30 1 -6.12185 31.5983 -12.4207
31 1 -6.54499 32.3677 -12.7716
32 1 -6.57119 32.878 -13.5796
ITEM: TIMESTEP
1500000
ITEM: NUMBER OF ATOMS
32
ITEM: BOX BOUNDS mm mm mm
-2.5321806878245191e+01 1.6000000000000000e+01
-1.6000000000000000e+01 3.2975455585345301e+01
-1.6000000000000000e+01 1.6000000000000000e+01
ITEM: ATOMS id type x y z
1 1 -25.3023 32.8731 -6.07501
2 1 -24.4974 32.4516 -6.07048
3 1 -23.6346 32.1811 -5.68672
4 1 -22.8788 32.241 -5.17843
5 1 -22.0931 32.3055 -4.74752
6 1 -21.3077 32.606 -4.34989
7 1 -20.6246 32.5308 -3.7124
8 1 -20.1881 32.0804 -2.97613
9 1 -19.9632 31.4156 -2.39327
10 1 -19.4148 30.8014 -1.84709
11 1 -18.6736 30.4028 -1.47054
12 1 -17.983 29.8405 -1.642
13 1 -17.2323 29.2821 -1.72126
14 1 -16.6918 28.5146 -1.86517
15 1 -16.3183 27.6527 -1.86253
16 1 -15.912 26.8957 -2.21414
17 1 -15.2289 26.2593 -2.50434
18 1 -14.7153 26.0723 -3.25118
19 1 -14.5746 25.8462 -4.13031
20 1 -14.1168 25.2277 -4.73019
21 1 -13.7222 24.5356 -5.15851
22 1 -13.3482 23.7342 -5.52216
23 1 -12.853 23.1767 -5.99441
24 1 -12.2314 23.1764 -6.75063
25 1 -11.7638 23.9871 -7.07918
26 1 -12.1245 24.8887 -7.25382
27 1 -12.2161 25.7347 -7.61144
28 1 -12.8406 26.2967 -8.04193
29 1 -13.6095 26.8362 -8.13293
30 1 -14.4124 27.2896 -7.8079
31 1 -15.323 27.614 -7.71281
32 1 -16.2539 27.7549 -7.6078
ITEM: TIMESTEP
1510000
ITEM: NUMBER OF ATOMS
32
ITEM: BOX BOUNDS mm mm mm
-2.0639827033890128e+01 1.6000000000000000e+01
-1.6000000000000000e+01 3.0535989216321060e+01
-1.6000000000000000e+01 1.6000000000000000e+01
ITEM: ATOMS id type x y z
1 1 -20.2552 27.3876 6.35198
2 1 -19.8088 27.6821 5.55268
3 1 -19.4101 28.0483 4.78487
4 1 -18.9914 28.4831 4.12895
5 1 -18.434 29.0575 3.62953
6 1 -18.1196 29.362 2.80068
7 1 -17.513 29.9112 2.3706
8 1 -16.6492 30.3365 2.32512
9 1 -15.8294 30.5659 2.59032
10 1 -15.0003 30.1886 2.41345
11 1 -14.463 29.5518 1.89158
12 1 -14.4995 28.6854 1.53593
13 1 -14.8931 27.9833 1.05796
14 1 -15.0058 27.418 0.315125
15 1 -15.2363 27.0852 -0.510568
16 1 -15.5781 26.442 -1.11355
17 1 -15.7374 25.9 -1.90468
18 1 -16.0299 25.4921 -2.75336
19 1 -16.5771 25.0214 -3.34158
20 1 -16.7903 24.6006 -4.13158
21 1 -16.7467 23.8488 -4.68689
22 1 -16.8059 23.5382 -5.61744
23 1 -16.7315 23.2103 -6.50606
24 1 -17.103 23.0537 -7.32511
25 1 -17.3401 23.0388 -8.25051
26 1 -17.923 23.0096 -8.9707
27 1 -18.095 22.5487 -9.74195
28 1 -18.0344 22.1169 -10.5143
29 1 -17.6708 21.4615 -11.1103
30 1 -16.8827 21.0033 -11.3508
31 1 -16.6316 20.2608 -11.8798
32 1 -16.1593 19.583 -12.3844
ITEM: TIMESTEP
1520000
ITEM: NUMBER OF ATOMS
32
ITEM: BOX BOUNDS mm mm mm
-1.8953836796995503e+01 1.6000000000000000e+01
-1.6000000000000000e+01 3.4680209654958446e+01
-1.6000000000000000e+01 1.6000000000000000e+01
ITEM: ATOMS id type x y z
1 1 -13.6813 34.4632 6.11257
2 1 -13.2291 34.7633 5.31985
3 1 -12.5854 34.8109 4.61084
4 1 -12.1824 34.911 3.70029
5 1 -12.4888 34.8877 2.76733
6 1 -12.837 34.349 2.08706
7 1 -13.4728 34.0847 1.52307
8 1 -14.0851 33.4282 1.57607
9 1 -14.7644 32.7596 1.5732
10 1 -15.3214 32.0638 1.24944
11 1 -15.5301 31.4795 0.463298
12 1 -15.8776 30.7019 0.0863543
13 1 -16.3299 29.8968 -0.192968
14 1 -16.9098 29.2065 0.145231
15 1 -17.0274 28.2713 0.371878
16 1 -17.3101 27.4159 0.693792
17 1 -18.0222 26.7679 0.887376
18 1 -18.5477 25.972 0.864311
19 1 -18.6423 25.2155 0.311753
20 1 -18.5169 24.5366 -0.279915
21 1 -18.0739 24.4352 -1.15336
22 1 -17.6006 24.4854 -1.98187
23 1 -17.3 24.629 -2.85606
24 1 -16.7076 24.7186 -3.54264
25 1 -16.0055 24.5018 -4.07897
26 1 -15.3017 24.4824 -4.71941
27 1 -14.5047 24.4272 -5.16128
28 1 -14.4539 24.1007 -6.06037
29 1 -14.9151 23.6704 -6.73672
30 1 -15.2402 22.9985 -7.34295
31 1 -15.7346 22.7886 -8.08252
32 1 -16.2268 22.2999 -8.70764
ITEM: TIMESTEP
1530000
ITEM: NUMBER OF ATOMS
32
ITEM: BOX BOUNDS mm mm mm
-2.2844596228794785e+01 1.6000000000000000e+01
-1.6000000000000000e+01 3.5145229761824552e+01
-1.6000000000000000e+01 1.6000000000000000e+01
ITEM: ATOMS id type x y z
1 1 -22.8501 29.9624 5.1923
2 1 -22.2606 30.3331 5.77707
3 1 -21.5361 30.6473 6.26298
4 1 -20.6541 30.7297 6.69448
5 1 -19.8824 30.9872 7.13582
6 1 -19.1191 31.3831 6.77313
7 1 -18.4945 31.9413 6.26706
8 1 -18.4347 32.7517 5.82917
9 1 -18.1316 33.3999 5.21856
10 1 -18.4831 34.1434 4.85157
11 1 -19.0852 34.7751 4.44184
12 1 -19.5381 35.0657 3.70248
13 1 -19.6147 34.8849 2.74012
14 1 -19.305 34.4668 1.9414
15 1 -19.2188 34.1761 1.07448
16 1 -19.408 33.329 0.609993
17 1 -19.6721 32.4324 1.00272
18 1 -20.0299 31.6115 1.14577
19 1 -20.5396 30.8213 1.25638
20 1 -21.0973 30.1036 0.968022
21 1 -21.3699 29.2297 1.12373
22 1 -21.243 28.3933 1.48023
23 1 -20.6859 27.7626 1.82403
24 1 -20.1842 27.3466 2.47655
25 1 -19.5956 26.5874 2.80166
26 1 -19.1639 25.8205 3.07685
27 1 -19.0337 24.8952 3.14737
28 1 -19.3379 24.0626 2.90656
29 1 -19.5618 23.2514 2.38132
30 1 -19.6615 22.9859 1.4698
31 1 -20.4094 22.6518 1.0094
32 1 -21.3382 22.5953 0.707258
ITEM: TIMESTEP
1540000
ITEM: NUMBER OF ATOMS
32
ITEM: BOX BOUNDS mm mm mm
-2.0094703715433052e+01 1.6000000000000000e+01
-1.6000000000000000e+01 3.1624376167302291e+01
-1.6000000000000000e+01 1.6000000000000000e+01
ITEM: ATOMS id type x y z
1 1 -11.9381 31.6318 8.4533
2 1 -12.52 31.2599 9.0628
3 1 -13.161 30.5571 9.22742
4 1 -13.8676 30.1303 9.70781
5 1 -14.145 30.4482 10.5838
6 1 -14.2737 30.5297 11.5327
7 1 -14.3506 30.8009 12.4288
8 1 -14.3284 30.9893 13.3491
9 1 -14.7919 31.4274 14.0494
10 1 -15.4071 31.1368 14.6728
11 1 -16.2244 30.8211 14.7866
12 1 -17.0677 30.3669 15.0146
13 1 -17.7114 29.796 15.3076
14 1 -18.2447 29.0663 15.0871
15 1 -18.9471 28.6641 14.6351
16 1 -19.7322 28.4022 14.1619
17 1 -20.2388 28.1084 13.4068
18 1 -20.1526 27.5051 12.7136
19 1 -19.8323 26.9669 12.0287
20 1 -19.4097 26.7897 11.2205
21 1 -18.805 26.9989 10.5368
22 1 -18.5638 27.3207 9.6494
23 1 -18.5918 27.8545 8.90528
24 1 -18.4579 28.1828 8.01967
25 1 -18.0169 28.5001 7.25298
26 1 -17.4359 29.0775 6.70315
27 1 -17.0173 29.3602 5.90647
28 1 -16.3352 29.5834 5.27716
29 1 -15.4649 29.5707 4.9467
30 1 -14.9426 29.1011 4.28793
31 1 -14.2989 28.5539 3.84542
32 1 -13.8626 28.1034 3.14933
ITEM: TIMESTEP
1550000
ITEM: NUMBER OF ATOMS
32
ITEM: BOX BOUNDS mm mm mm
-2.3627154208135863e+01 1.6000000000000000e+01
-1.6000000000000000e+01 3.4375673880707723e+01
-1.6000000000000000e+01 2.0806929565741385e+01
ITEM: ATOMS id type x y z
1 1 -20.4176 33.0907 21.0427
2 1 -19.8272 33.7305 20.6719
3 1 -19.1624 33.9098 20.0606
4 1 -18.5666 34.5839 19.7941
5 1 -17.8492 34.4344 19.1286
6 1 -17.296 33.7228 18.7198
7 1 -17.1391 33.3262 17.8839
8 1 -17.4599 33.231 17.0077
9 1 -17.5177 33.2388 16.0666
10 1 -17.259 33.3735 15.1622
11 1 -16.8579 33.6193 14.3176
12 1 -16.474 33.3142 13.5351
13 1 -16.5039 32.8818 12.6836
14 1 -16.7216 32.5669 11.8138
15 1 -17.1607 32.187 11.0878
16 1 -17.0179 31.6507 10.3063
17 1 -17.1111 30.8946 9.78997
18 1 -16.6857 30.4578 9.0657
19 1 -16.701 29.8804 8.31973
20 1 -16.7262 29.0428 7.86276
21 1 -16.8794 28.5155 7.10394
22 1 -16.968 28.3704 6.18241
23 1 -17.1443 28.4511 5.23863
24 1 -17.3826 28.9277 4.49434
25 1 -17.8147 29.0652 3.67938
26 1 -18.6003 29.3213 3.18956
27 1 -19.4873 29.3319 2.938
28 1 -20.3653 29.3706 2.80439
29 1 -21.1054 29.6417 3.21458
30 1 -21.9031 30.0349 3.47731
31 1 -22.7491 30.4725 3.29176
32 1 -23.0907 31.3034 3.51309
ITEM: TIMESTEP
1560000
ITEM: NUMBER OF ATOMS
32
ITEM: BOX BOUNDS mm mm mm
-2.6939969465808151e+01 1.6000000000000000e+01
-1.6000000000000000e+01 3.6118343736565457e+01
-1.6000000000000000e+01 1.6000000000000000e+01
ITEM: ATOMS id type x y z
1 1 -24.8725 35.4991 13.951
2 1 -24.9745 35.0045 13.1969
3 1 -25.3445 34.8076 12.4037
4 1 -25.5424 33.8972 12.4715
5 1 -25.6681 32.9799 12.6161
6 1 -25.8066 32.0779 13.0034
7 1 -25.6981 31.1812 12.8995
8 1 -26.0099 30.2512 12.9753
9 1 -26.5209 29.5122 12.5825
10 1 -27.0375 29.1008 11.9222
11 1 -27.3048 28.5847 11.1802
12 1 -26.9791 28.6782 10.3345
13 1 -26.7933 29.2043 9.62522
14 1 -26.518 29.1122 8.75883
15 1 -26.3141 29.0972 7.84744
16 1 -25.6522 29.5452 7.32278
17 1 -24.95 30.0511 6.99226
18 1 -24.2718 30.5794 6.69957
19 1 -23.4585 31.1096 6.56594
20 1 -23.0467 31.4454 5.81531
21 1 -22.4055 31.692 5.16566
22 1 -21.9784 32.0765 4.41819
23 1 -21.7904 32.1172 3.43578
24 1 -21.7681 32.4034 2.51632
25 1 -21.9065 32.8663 1.74191
26 1 -21.8124 33.5282 1.04694
27 1 -21.4604 34.4288 0.880781
28 1 -21.7359 35.2721 0.803581
29 1 -22.4638 35.817 0.983265
30 1 -23.362 35.7697 1.27817
31 1 -23.955 35.1572 1.70726
32 1 -24.6678 34.4582 1.68584
ITEM: TIMESTEP
1570000
ITEM: NUMBER OF ATOMS
32
ITEM: BOX BOUNDS mm mm mm
-2.8124364347935984e+01 1.6000000000000000e+01
-1.6000000000000000e+01 3.4192377844737905e+01
-1.6000000000000000e+01 1.9219939511495689e+01
ITEM: ATOMS id type x y z
1 1 -28.4735 20.4363 18.6909
2 1 -27.7248 20.9807 18.4142
3 1 -26.9551 21.3008 18.0469
4 1 -26.2956 21.8769 17.721
5 1 -25.8072 22.5743 17.2458
6 1 -24.9646 22.95 17.0934
7 1 -24.5866 23.4628 16.36
8 1 -24.7638 23.2442 15.4393
9 1 -24.7853 23.1479 14.5
10 1 -24.1656 23.3799 13.8406
11 1 -23.8276 23.5709 12.998
12 1 -23.409 24.0692 12.2986
13 1 -22.8916 24.645 11.8943
14 1 -22.3013 25.1399 11.3344
15 1 -22.0022 25.7077 10.6713
16 1 -21.8578 26.5689 10.3126
17 1 -21.4192 27.2312 9.78746
18 1 -21.1013 27.8022 9.14772
19 1 -20.9951 28.5428 8.63755
20 1 -20.7603 29.1734 7.99346
21 1 -20.8532 29.9254 7.31957
22 1 -20.9994 30.8267 7.01977
23 1 -21.6063 31.4615 6.72881
24 1 -22.3857 31.995 6.58
25 1 -22.8284 32.6938 6.07563
26 1 -23.164 33.1578 5.31985
27 1 -23.2454 33.6763 4.55259
28 1 -23.9315 34.1651 4.02452
29 1 -24.7783 34.522 3.99705
30 1 -25.6975 34.5704 3.83543