ITEM: TIMESTEP
0
ITEM: NUMBER OF ATOMS
32
ITEM: BOX BOUNDS mm mm mm
-1.6000000000000000e+01 1.6000000000000000e+01
-1.6000000000000000e+01 1.6000000000000000e+01
-1.6000000000000000e+01 1.6000000000000000e+01
ITEM: ATOMS id type x y z
1 1 -15.2 0 0
2 1 -14.25 0 0
3 1 -13.3 0 0
4 1 -12.35 0 0
5 1 -11.4 0 0
6 1 -10.45 0 0
7 1 -9.5 0 0
8 1 -8.55 0 0
9 1 -7.6 0 0
10 1 -6.65 0 0
11 1 -5.7 0 0
12 1 -4.75 0 0
13 1 -3.8 0 0
14 1 -2.85 0 0
15 1 -1.9 0 0
16 1 -0.95 0 0
17 1 0 0 0
18 1 0.95 0 0
19 1 1.9 0 0
20 1 2.85 0 0
21 1 3.8 0 0
22 1 4.75 0 0
23 1 5.7 0 0
24 1 6.65 0 0
25 1 7.6 0 0
26 1 8.55 0 0
27 1 9.5 0 0
28 1 10.45 0 0
29 1 11.4 0 0
30 1 12.35 0 0
31 1 13.3 0 0
32 1 14.25 0 0
ITEM: TIMESTEP
10000
ITEM: NUMBER OF ATOMS
32
ITEM: BOX BOUNDS mm mm mm
-1.6000000000000000e+01 1.6000000000000000e+01
-1.6000000000000000e+01 1.6000000000000000e+01
-1.6000000000000000e+01 1.6000000000000000e+01
ITEM: ATOMS id type x y z
1 1 -12.2426 -1.16511 3.31656
2 1 -11.5315 -1.67689 3.90538
3 1 -10.5229 -1.73109 4.20632
4 1 -9.51426 -1.81766 4.46742
5 1 -8.35145 -1.98365 4.48054
6 1 -7.40482 -1.97494 4.35691
7 1 -6.39199 -2.09372 4.12608
8 1 -5.37516 -1.93568 3.85493
9 1 -4.36787 -2.19442 3.78271
10 1 -3.53716 -2.53928 3.28538
11 1 -2.63935 -2.72982 2.66773
12 1 -1.79215 -2.91242 1.95487
13 1 -0.801743 -3.23075 1.54543
14 1 0.197476 -3.37284 1.08668
15 1 1.41023 -3.44675 0.904213
16 1 2.4996 -3.44008 1.01093
17 1 3.45059 -3.76839 1.02651
18 1 4.37551 -4.16526 1.00742
19 1 5.36986 -4.75432 0.785889
20 1 6.38109 -4.84253 1.26866
21 1 7.54382 -5.24522 1.47124
22 1 8.62398 -5.17408 1.12073
23 1 9.62072 -5.28883 0.622564
24 1 10.5074 -5.77868 0.27414
25 1 11.3185 -5.90207 -0.455364
26 1 11.5732 -6.14443 -1.54456
27 1 11.6973 -6.54576 -2.77078
28 1 11.5682 -6.86602 -3.74638
29 1 11.2468 -6.97383 -4.73379
30 1 11.1041 -6.76151 -5.7877
31 1 11.1243 -6.80854 -6.83947
32 1 11.5251 -6.65081 -7.79711
ITEM: TIMESTEP
20000
ITEM: NUMBER OF ATOMS
32
ITEM: BOX BOUNDS mm mm mm
-1.6000000000000000e+01 1.6000000000000000e+01
-1.6000000000000000e+01 1.6000000000000000e+01
-1.6000000000000000e+01 1.6564746852031785e+01
ITEM: ATOMS id type x y z
1 1 2.32709 4.34232 16.3798
2 1 2.60368 3.88227 15.6577
3 1 3.00469 3.70548 14.8678
4 1 3.40135 3.75971 13.9804
5 1 3.97966 3.60676 13.2909
6 1 4.25305 3.47586 12.37
7 1 4.44796 3.06249 11.5399
8 1 4.7851 2.49209 10.9271
9 1 5.14446 1.93258 10.2535
10 1 5.33383 1.36229 9.54408
11 1 5.36805 0.92313 8.69827
12 1 5.25685 0.152848 8.13048
13 1 5.18161 -0.62502 7.51827
14 1 5.30858 -1.34052 6.94079
15 1 5.51608 -2.17233 6.64121
16 1 5.62009 -3.06218 6.29046
17 1 5.66336 -3.9738 6.099
18 1 5.64161 -4.87423 5.97191
19 1 5.96147 -5.72619 5.729
20 1 6.35788 -6.5274 5.39854
21 1 6.68738 -7.3388 5.22096
22 1 7.12938 -8.03597 4.84388
23 1 7.76743 -8.30989 4.22981
24 1 8.60413 -8.588 3.87755
25 1 9.30343 -8.95461 3.3361
26 1 9.84753 -9.43506 2.68334
27 1 10.3416 -9.89754 2.0626
28 1 11.0032 -10.346 1.57823
29 1 11.6841 -10.2665 1.01699
30 1 12.3926 -10.0853 0.400817
31 1 13.0911 -9.6734 -0.0543071
32 1 13.7936 -9.3892 -0.625338
