ITEM: TIMESTEP
1070000
ITEM: NUMBER OF ATOMS
32
ITEM: BOX BOUNDS mm mm mm
-1.6000000000000000e+01 2.3173811858938482e+01
-1.6000000000000000e+01 4.7562244558600511e+01
-1.6000000000000000e+01 1.6000000000000000e+01
ITEM: ATOMS id type x y z
1 1 22.958 45.8625 -7.55983
2 1 23.1706 46.4437 -8.23635
3 1 22.8616 46.6822 -9.11232
4 1 22.1705 46.9468 -9.73141
5 1 21.2025 46.8677 -9.77939
6 1 20.5802 47.097 -9.07613
7 1 19.6723 47.1836 -9.31852
8 1 18.743 47.3188 -9.69852
9 1 17.8451 47.2131 -9.75604
10 1 17.0383 47.4275 -10.1805
11 1 16.1435 47.559 -10.5877
12 1 15.3752 47.2768 -11.1233
13 1 14.786 46.5599 -11.0285
14 1 13.9777 46.334 -11.4747
15 1 13.4043 45.6964 -11.7308
16 1 13.0952 44.8688 -12.0345
17 1 12.3798 44.5443 -12.589
18 1 11.4977 44.3312 -12.7458
19 1 10.8731 43.6731 -12.5484
20 1 10.7273 42.6885 -12.537
21 1 10.6082 42.094 -11.8292
22 1 10.527 41.4152 -11.1902
23 1 10.768 41.0369 -10.4252
24 1 10.9352 40.6161 -9.64174
25 1 11.3538 40.0917 -8.93867
26 1 12.038 39.5234 -8.55526
27 1 12.792 40.0016 -8.23409
28 1 13.573 39.9853 -8.74276
29 1 14.3042 40.1491 -9.24626
30 1 15.0914 39.6429 -9.68665
31 1 15.9892 39.642 -9.83002
32 1 16.2461 38.9878 -10.4123
ITEM: TIMESTEP
1080000
ITEM: NUMBER OF ATOMS
32
ITEM: BOX BOUNDS mm mm mm
-1.6000000000000000e+01 1.9744667803790470e+01
-1.6000000000000000e+01 5.0461190634532102e+01
-1.6000000000000000e+01 1.6000000000000000e+01
ITEM: ATOMS id type x y z
1 1 17.4937 50.4905 -14.2925
2 1 18.3536 50.3916 -14.6398
3 1 19.2062 49.9403 -14.4875
4 1 19.8134 49.3616 -14.1006
5 1 19.7307 48.4243 -14.0269
6 1 19.4066 47.5154 -14.0589
7 1 19.2252 46.74 -14.518
8 1 18.9324 46.0336 -13.9984
9 1 18.3886 45.4157 -13.5446
10 1 17.6226 45.2592 -13.0267
11 1 16.9345 45.2858 -13.6838
12 1 16.0419 45.4137 -13.9915
13 1 15.1637 45.6774 -13.8943
14 1 14.53 45.5517 -13.239
15 1 14.3739 46.1195 -12.5103
16 1 14.1896 46.4782 -11.6
17 1 15.0269 46.3407 -11.1164
18 1 15.7882 46.3928 -10.5198
19 1 16.0742 47.1299 -9.98399
20 1 16.2596 47.8002 -9.34397
21 1 16.5901 48.7094 -9.01135
22 1 16.4893 49.2638 -8.29387
23 1 15.8778 50.0011 -8.38013
24 1 15.1261 50.4765 -8.55676
25 1 14.4633 50.3271 -9.22854
26 1 13.9969 49.4949 -9.37263
27 1 13.176 49.3091 -9.02421
28 1 12.3931 48.8569 -8.83484
29 1 11.9028 48.1267 -8.3679
30 1 11.6779 48.0854 -7.45753
31 1 11.6202 48.5289 -6.64272
32 1 11.1307 48.453 -5.81889
ITEM: TIMESTEP
1090000
ITEM: NUMBER OF ATOMS
32
ITEM: BOX BOUNDS mm mm mm
-1.6000000000000000e+01 1.6000000000000000e+01
-1.6000000000000000e+01 5.0924077632369610e+01
-2.1511038531320875e+01 1.6000000000000000e+01
ITEM: ATOMS id type x y z
1 1 6.92765 47.0388 -21.3979
2 1 6.39638 46.4732 -20.9046
3 1 5.66164 46.439 -20.3062
4 1 4.94177 46.0755 -19.8398
5 1 4.06504 46.0201 -19.6236
6 1 3.77871 46.3119 -18.8226
7 1 4.51719 45.994 -18.3204
8 1 5.30946 45.7184 -17.9554
9 1 6.19239 45.4898 -18.1367
10 1 6.81389 46.1035 -17.8339
11 1 6.51473 46.4559 -17.0247
12 1 7.10849 46.9647 -16.4963
13 1 7.73245 47.5733 -16.1606
14 1 8.25312 47.9664 -15.4563
15 1 8.41022 48.2795 -14.5297
16 1 9.08205 48.6934 -14.1218
17 1 9.22797 49.3619 -13.4106
18 1 9.10672 50.2654 -13.2925
19 1 8.51145 50.4652 -12.5751
20 1 7.92513 50.3173 -11.8713
21 1 7.51836 49.9009 -11.0824
22 1 7.20275 49.5544 -10.2511
23 1 7.38316 48.6518 -10.1295
24 1 7.96355 47.933 -10.0392
25 1 8.29776 47.4846 -9.26461
26 1 8.01058 47.2074 -8.43176
27 1 8.75352 46.7386 -8.12204
28 1 9.55822 46.3005 -8.25975
29 1 9.80029 45.6116 -8.77463
30 1 10.076 45.1004 -9.5163
31 1 10.7473 45.3078 -10.1831
32 1 11.5675 45.3509 -10.6559
ITEM: TIMESTEP
1100000
ITEM: NUMBER OF ATOMS
32
ITEM: BOX BOUNDS mm mm mm
-1.6000000000000000e+01 1.6000000000000000e+01
-1.6000000000000000e+01 5.2977068274369152e+01
-2.1381481599633474e+01 1.6000000000000000e+01
ITEM: ATOMS id type x y z
1 1 1.02957 50.1166 -20.3479
2 1 1.30391 50.9033 -20.7547
3 1 2.28831 51.1603 -21.0094
4 1 2.94553 51.7228 -21.4716
5 1 3.69253 52.0104 -21.9946
6 1 4.50249 52.3119 -21.6669
7 1 5.1671 52.4473 -21.0347
8 1 5.60405 52.5088 -20.2699
9 1 6.04597 52.4767 -19.4381
10 1 6.31275 52.1251 -18.6081
11 1 5.95434 51.2169 -18.4338
12 1 5.56328 50.5655 -17.901
13 1 5.15709 50.7663 -17.0426
14 1 5.6056 51.049 -16.2038
15 1 5.93705 51.7489 -15.6928
16 1 6.12417 52.0755 -14.8642
17 1 6.26211 52.1438 -13.8874
18 1 6.03855 52.3248 -12.9826
19 1 6.10959 52.7542 -12.2023
20 1 5.69293 53.2682 -11.4802
21 1 5.58085 52.8012 -10.6043
22 1 5.9787 52.1647 -10.0533
23 1 6.37651 52.1783 -9.18734
24 1 6.18884 51.7513 -8.42301
25 1 6.56891 51.3438 -7.69941
26 1 7.50108 51.209 -7.50581
27 1 8.41037 51.237 -7.18966
28 1 9.3628 50.9843 -7.25218
29 1 10.2371 50.9725 -6.83443
30 1 10.7824 51.0126 -6.0266
31 1 11.6161 51.0105 -5.44069
32 1 12.0256 51.0821 -4.62912
ITEM: TIMESTEP
1110000
ITEM: NUMBER OF ATOMS
32
ITEM: BOX BOUNDS mm mm mm
-1.6000000000000000e+01 1.6000000000000000e+01
-1.6000000000000000e+01 5.5799988415290009e+01
-2.1300042665850729e+01 1.6000000000000000e+01
ITEM: ATOMS id type x y z
1 1 -2.77936 49.9043 -21.6808
2 1 -2.71813 50.6478 -21.0934
3 1 -2.2842 51.1085 -20.4385
4 1 -1.57688 51.1832 -19.7778
5 1 -0.855977 51.1454 -19.1997
6 1 -0.611547 51.5684 -18.3158
7 1 -0.618624 52.1753 -17.6206
8 1 -0.695769 52.8003 -16.9045
9 1 -1.06072 53.2356 -16.1006
10 1 -1.09713 53.7937 -15.3517
11 1 -0.380528 54.3064 -14.9548
12 1 0.369548 54.9159 -14.8153
13 1 0.975184 55.2384 -14.2261
14 1 1.60907 55.6691 -13.6503
15 1 2.20637 55.7413 -12.9729
16 1 2.57151 55.3364 -12.2114
17 1 2.83165 55.4005 -11.2896
18 1 3.1082 55.2387 -10.3814
19 1 3.15215 55.6525 -9.55956
20 1 3.52765 56.0959 -8.7807
21 1 3.59695 55.9138 -7.81833
22 1 4.10568 55.1091 -7.62946
23 1 4.11658 54.136 -7.59976
24 1 4.68464 53.4329 -7.66011
25 1 5.16065 52.6241 -7.71665
26 1 5.56988 51.7554 -7.78406
27 1 5.74118 50.8683 -7.86709
28 1 5.67978 50.3723 -8.69005
29 1 5.61123 50.5339 -9.67786
30 1 5.85214 50.6022 -10.5932
31 1 6.64112 50.6598 -11.1031
32 1 7.41895 50.5658 -11.5762
ITEM: TIMESTEP
1120000
ITEM: NUMBER OF ATOMS
32
ITEM: BOX BOUNDS mm mm mm
-1.6000000000000000e+01 1.6000000000000000e+01
-1.6000000000000000e+01 6.2793138398289280e+01
-1.6000000000000000e+01 1.6000000000000000e+01
ITEM: ATOMS id type x y z
1 1 1.59933 62.9294 -16.0105
2 1 2.33932 62.4766 -15.7611
3 1 2.26523 61.4991 -15.5555
4 1 2.13588 60.5748 -15.5857
5 1 1.95357 59.6841 -15.4735
6 1 1.70497 58.7979 -15.629
7 1 1.67016 57.8836 -15.4692
8 1 1.3203 57.1536 -14.8938
9 1 0.794393 56.3811 -14.8481
10 1 0.533314 55.5464 -15.1367
11 1 0.820796 54.6716 -15.3708
12 1 1.48983 53.9608 -15.3887
13 1 1.90089 53.1405 -15.0431
14 1 2.47711 52.4589 -14.5807
15 1 2.62403 51.6536 -14.1162
16 1 2.6681 50.8997 -13.623
17 1 2.93457 50.2159 -13.0301
18 1 3.0081 49.6695 -12.271
19 1 2.83208 49.6545 -11.3303
20 1 3.41992 49.2589 -10.673
21 1 3.83908 48.8059 -9.98992
22 1 3.55233 49.245 -9.20107
23 1 3.43927 49.5959 -8.38691
24 1 4.12281 50.0587 -7.87248
25 1 4.70204 50.6967 -7.49614
26 1 5.31758 50.4035 -6.87582
27 1 5.63736 50.3337 -5.96943
28 1 5.64164 50.7867 -5.12228
29 1 5.40122 51.4005 -4.45422
30 1 5.83293 51.6482 -3.66269
31 1 6.45398 51.659 -2.97659
32 1 6.63971 52.55 -2.68791
ITEM: TIMESTEP
1130000
ITEM: NUMBER OF ATOMS
32
ITEM: BOX BOUNDS mm mm mm
-1.6000000000000000e+01 1.6000000000000000e+01
-1.6000000000000000e+01 5.8152483728492200e+01
-1.6003890982019165e+01 1.6000000000000000e+01
ITEM: ATOMS id type x y z
1 1 -4.18779 57.8724 -14.5903
2 1 -5.02286 58.16 -14.8103
3 1 -5.79997 57.8037 -15.1642
4 1 -5.20938 57.3535 -15.7306
5 1 -4.90899 56.4832 -15.9354
6 1 -4.29976 56.0229 -15.3924
7 1 -4.15497 55.4074 -14.7496
8 1 -3.54064 55.0068 -14.1207
9 1 -2.91572 54.3713 -13.7504
10 1 -2.45311 54.0898 -13.0234
11 1 -2.64974 53.2344 -12.6634
12 1 -2.66768 52.4119 -12.2365
13 1 -2.8767 51.7491 -11.6433
14 1 -2.49712 51.0159 -11.3016
15 1 -2.41052 50.4564 -10.5253
16 1 -1.58751 50.049 -10.6623
17 1 -1.04429 49.247 -10.7732
18 1 -0.371586 48.608 -10.9975
19 1 -0.26046 48.432 -10.1068
20 1 -0.835998 48.5482 -9.38141
21 1 -0.491154 48.5546 -8.49463
22 1 -0.623815 48.1275 -7.63291
23 1 -0.842977 47.5654 -6.87256
24 1 -1.07297 47.3282 -5.98055
25 1 -1.07994 48.1132 -5.50075
26 1 -1.32736 48.1544 -4.60842
27 1 -1.51861 47.5234 -3.98762
28 1 -1.42194 47.0426 -3.16198
29 1 -1.40074 46.5249 -2.38441
30 1 -1.09048 46.2207 -1.48019
31 1 -0.51574 46.2905 -0.736389
32 1 -0.403136 45.7457 -0.0230666
ITEM: TIMESTEP
1140000
ITEM: NUMBER OF ATOMS
32
ITEM: BOX BOUNDS mm mm mm
-1.6000000000000000e+01 1.6000000000000000e+01
-1.6000000000000000e+01 5.5957420590929061e+01
-1.6000000000000000e+01 1.6000000000000000e+01
ITEM: ATOMS id type x y z
1 1 1.61161 56.3027 -10.6159
2 1 1.39139 55.4082 -10.8293
3 1 1.26301 54.5246 -11.1758
4 1 1.55324 53.7241 -11.4803
5 1 1.78758 52.8258 -11.4604
6 1 2.12413 51.9397 -11.4469
7 1 2.85157 51.378 -11.6653
8 1 3.68641 50.9799 -11.559
9 1 4.24176 50.2631 -11.5984
10 1 4.46516 49.5035 -11.0518
11 1 4.45214 48.9182 -10.3298
12 1 4.54174 48.3555 -9.61685
13 1 4.5499 48.7331 -8.78011
14 1 4.18504 48.9107 -7.92368
15 1 3.76111 48.7339 -7.10513
16 1 3.107 48.0951 -6.88629
17 1 2.25413 48.4452 -6.43488
18 1 1.28838 48.3557 -6.46994
19 1 0.475906 47.9322 -6.34322
20 1 -0.470004 47.7359 -6.31298
21 1 -0.971394 47.0666 -6.84957
22 1 -1.76076 46.5386 -6.65366
23 1 -2.56107 46.3044 -6.06676
24 1 -3.36004 46.1766 -5.62276
25 1 -4.27804 45.9425 -5.20244
26 1 -4.74902 46.3797 -5.8507
27 1 -5.23636 46.639 -6.65248
28 1 -5.61505 47.3658 -7.08276
29 1 -5.12151 48.0142 -7.61562
30 1 -4.74603 48.3973 -8.4179
31 1 -4.29455 48.9727 -9.05733
32 1 -3.59745 49.7361 -9.18481
ITEM: TIMESTEP
1150000
ITEM: NUMBER OF ATOMS
32
ITEM: BOX BOUNDS mm mm mm
-1.6000000000000000e+01 1.6000000000000000e+01
-1.6000000000000000e+01 6.1294655727543905e+01
-1.8998802586738389e+01 1.6000000000000000e+01
ITEM: ATOMS id type x y z
1 1 1.504 61.2585 -19.0697
2 1 2.0822 60.6197 -18.5922
3 1 1.87792 59.6857 -18.5597
4 1 2.40278 58.8752 -18.7399
5 1 2.63132 58.0172 -18.917
6 1 3.1795 57.3274 -18.5571
7 1 3.45248 56.6239 -17.8484
8 1 3.49134 55.9478 -17.2297
9 1 3.45442 54.9813 -17.1778
10 1 3.52481 54.1757 -16.7202
11 1 3.61322 53.3932 -16.2412
12 1 3.85123 52.5186 -15.9244
13 1 4.18559 51.8725 -15.2376
14 1 4.36518 50.9525 -15.2971
15 1 3.70825 50.344 -15.4933
16 1 2.7603 50.0989 -15.3915
17 1 1.84784 50.0423 -15.3926
18 1 1.11948 49.6467 -14.9942
19 1 0.386305 49.4021 -14.4733
20 1 0.0625113 48.8357 -13.7651
21 1 -0.129502 48.5902 -12.9346
22 1 0.225309 47.9333 -12.3386
23 1 -0.00499803 47.2186 -11.7247
24 1 -0.0601803 46.9282 -10.7894
25 1 0.34701 47.242 -9.98189
26 1 0.475273 47.9395 -9.35578
27 1 -0.368699 48.2093 -9.701
28 1 -1.32385 48.4264 -9.67782
29 1 -2.28348 48.6615 -9.4067
30 1 -3.0137 48.2678 -8.97968
31 1 -3.21354 47.5334 -8.39271
32 1 -3.15313 46.9788 -7.62238
ITEM: TIMESTEP
1160000
ITEM: NUMBER OF ATOMS
32
ITEM: BOX BOUNDS mm mm mm
-1.6000000000000000e+01 1.6000000000000000e+01
-1.6000000000000000e+01 5.8088175818422108e+01
-1.7578529053811671e+01 1.6000000000000000e+01
ITEM: ATOMS id type x y z
1 1 -1.43642 54.541 -17.5686
2 1 -2.41382 54.7096 -17.5829
3 1 -2.81147 55.5421 -17.3411
4 1 -3.13412 56.3812 -17.0025
5 1 -3.08956 56.8351 -16.1397
6 1 -3.21857 57.5744 -15.5662
7 1 -2.33781 58.0861 -15.6593
8 1 -1.69158 58.0331 -16.3621
9 1 -1.46666 57.2012 -16.8128
10 1 -1.16567 56.4624 -16.3141
11 1 -0.862255 55.6174 -16.3518
12 1 -1.19133 54.6756 -16.3658
13 1 -1.31222 53.705 -16.5356
14 1 -1.6554 52.7933 -16.5107
15 1 -1.92916 52.3193 -15.7879
16 1 -2.38894 52.2102 -14.9738
17 1 -3.13821 51.7314 -15.2367
18 1 -3.60502 50.9112 -15.2461
19 1 -3.90255 50.0227 -15.2574
20 1 -3.7247 49.1054 -15.5882
21 1 -3.37789 48.2325 -15.7382
22 1 -3.14962 47.3706 -15.5329
23 1 -3.47365 46.6991 -14.9087
24 1 -4.12198 46.4099 -14.3397
25 1 -4.4387 45.9589 -13.5313
26 1 -4.9044 45.8937 -12.7298
27 1 -4.89963 44.9568 -12.5561
28 1 -4.69658 44.1248 -12.9558
29 1 -4.24454 43.3123 -13.0852
30 1 -4.24883 42.3752 -13.1689
31 1 -4.20148 41.4767 -13.3582
32 1 -3.44704 40.9437 -13.5839
ITEM: TIMESTEP
1170000
ITEM: NUMBER OF ATOMS
32
ITEM: BOX BOUNDS mm mm mm
-1.6000000000000000e+01 1.6000000000000000e+01
-1.6000000000000000e+01 5.9544476820851266e+01
-2.0532074971000554e+01 1.6000000000000000e+01
ITEM: ATOMS id type x y z
1 1 0.0933732 59.3856 -20.2088
2 1 0.350405 58.6992 -20.7466
3 1 0.670634 57.8826 -20.4936
4 1 0.544941 57.0803 -20.0041
5 1 0.51633 56.2567 -19.5199
6 1 0.333873 55.4456 -19.1463
7 1 0.564482 54.5842 -18.8973
8 1 0.67181 54.275 -18.0378
9 1 0.506801 53.4379 -17.513
10 1 0.150547 52.8105 -16.8736
11 1 -0.0448137 52.1099 -16.278
12 1 0.278276 51.4745 -15.7619
13 1 0.444694 50.7611 -15.1742
14 1 1.04712 50.2301 -14.6814
15 1 1.86854 50.3047 -14.3083
16 1 2.46887 51.0574 -14.5393
17 1 2.98509 51.313 -15.2937
18 1 2.64689 50.8136 -16.0159
19 1 2.48373 49.9763 -16.3541
20 1 2.58534 49.0946 -16.6498
21 1 3.07315 48.3566 -16.894
22 1 3.12108 48.2262 -16.004
23 1 2.99587 47.853 -15.1777
24 1 2.67795 47.2705 -14.4658
25 1 2.39752 46.8472 -13.713
26 1 1.81765 46.2993 -13.2024
27 1 1.58645 45.7984 -12.4127
28 1 1.32339 44.9514 -12.6873
29 1 1.07312 44.0204 -12.6934
30 1 0.43722 43.4539 -13.1456
31 1 -0.498959 43.4603 -13.2753
32 1 -1.20297 43.9431 -13.7169
ITEM: TIMESTEP
1180000
ITEM: NUMBER OF ATOMS
32
ITEM: BOX BOUNDS mm mm mm
-1.6000000000000000e+01 1.6000000000000000e+01
-1.6000000000000000e+01 6.1119477673701020e+01
-2.2003594908110440e+01 1.6000000000000000e+01
ITEM: ATOMS id type x y z
1 1 0.578855 61.1163 -20.5027
2 1 0.666619 60.664 -21.2899
3 1 1.05242 59.8717 -21.3952
4 1 1.21742 59.1037 -20.8989
5 1 0.464676 58.6243 -20.6627
6 1 -0.0379262 57.8193 -20.7627
7 1 0.136338 56.9512 -20.9816
8 1 0.0466263 56.0376 -21.2948
9 1 -0.384631 55.2444 -21.4249
10 1 0.0513787 54.431 -21.6451
11 1 0.155485 53.5531 -22.0004
12 1 0.702787 52.7967 -21.9457
13 1 1.28529 52.5085 -21.2874
14 1 1.81092 51.8863 -20.7764
15 1 2.68986 51.5949 -20.9137
16 1 3.48392 51.6462 -20.4065
17 1 3.97066 51.8512 -19.649
18 1 4.2951 52.4852 -19.0377
19 1 4.80664 53.13 -18.5047
20 1 4.35459 53.5969 -17.7837
21 1 3.49466 53.3349 -17.6948
22 1 3.36377 52.4591 -17.7201
23 1 3.62398 51.5835 -18.1089
24 1 3.77608 50.69 -18.3212
25 1 3.57805 49.8654 -18.7381
26 1 3.42481 48.9878 -18.9926
27 1 3.13008 48.1706 -19.3281
28 1 3.24422 47.2386 -19.1348
29 1 3.80474 46.5245 -19.1354
30 1 4.72849 46.2839 -19.2904
31 1 4.99931 45.7166 -20.0593
32 1 4.83831 45.0073 -20.736
ITEM: TIMESTEP
1190000
ITEM: NUMBER OF ATOMS
32
ITEM: BOX BOUNDS mm mm mm
-1.6000000000000000e+01 1.6000000000000000e+01
-1.6000000000000000e+01 6.1286878317415002e+01
-2.0694940061863903e+01 1.6000000000000000e+01
ITEM: ATOMS id type x y z
1 1 -2.42345 61.2055 -18.8161
2 1 -2.26431 60.3036 -18.9593
3 1 -1.92104 59.4096 -18.8302
4 1 -2.11355 59.0324 -19.6271
5 1 -2.01183 58.2682 -20.1349
6 1 -1.23352 57.7371 -20.0282
7 1 -0.380481 57.8391 -20.4481
8 1 0.468323 58.1902 -20.4601
9 1 1.36774 58.3295 -20.572
10 1 2.17844 58.7398 -20.2632
11 1 3.04808 58.9359 -20.3366
12 1 3.69093 58.4568 -19.8623
13 1 4.59004 58.3925 -19.8051
14 1 4.69396 58.0263 -18.8672
15 1 5.09733 57.6024 -18.1167
16 1 5.68487 57.2993 -17.3991
17 1 5.96372 56.9231 -16.5692
18 1 6.6028 56.8889 -15.9615
19 1 6.61269 55.968 -15.9076
20 1 6.44821 55.0075 -15.8812
21 1 6.76995 54.1087 -15.9122
22 1 6.86606 53.2365 -15.6154
23 1 7.06118 52.4117 -15.1846
24 1 7.1139 51.515 -14.965
25 1 7.09092 50.8191 -14.3735
26 1 6.83747 50.3612 -13.6012
27 1 6.34146 49.7392 -13.2027
28 1 5.68994 49.0685 -12.83
29 1 4.77118 48.9376 -12.702
30 1 3.96375 48.728 -12.2645
31 1 3.04562 48.7291 -12.0203
32 1 2.10992 48.8332 -11.8478
ITEM: TIMESTEP
1200000
ITEM: NUMBER OF ATOMS
32
ITEM: BOX BOUNDS mm mm mm
-1.6000000000000000e+01 1.6000000000000000e+01
-1.6000000000000000e+01 5.4468908988197903e+01
-1.9917856440695275e+01 1.6000000000000000e+01
ITEM: ATOMS id type x y z
1 1 -1.44465 51.0373 -19.3728
2 1 -1.02454 50.2287 -19.1039
3 1 -0.14607 50.1932 -19.5238
4 1 0.664863 49.831 -19.7866
5 1 1.52024 49.4035 -19.8168
6 1 2.11066 48.8102 -19.3694
7 1 2.81814 48.7618 -18.7471
8 1 3.6008 48.7809 -18.2339
9 1 4.22706 49.2628 -17.7175
10 1 5.09068 49.4191 -17.303
11 1 5.35903 50.315 -17.0835
12 1 5.31411 51.1689 -16.647
13 1 5.08591 51.9261 -16.1048
14 1 4.72725 52.5212 -15.463
15 1 4.30503 53.1763 -14.8731
16 1 4.33346 53.469 -14.018
17 1 5.23934 53.7652 -14.1353
18 1 6.12298 54.1233 -14.0369
19 1 6.92652 53.9534 -13.6729
20 1 7.73001 53.819 -13.1621
21 1 8.33838 53.5519 -12.5091
22 1 8.4086 53.006 -11.7675
23 1 8.5327 52.441 -10.9673
24 1 8.64615 51.7946 -10.3091
25 1 8.01647 51.7941 -9.60092
26 1 7.35442 52.1182 -9.08242
27 1 6.57294 52.1962 -8.54169
28 1 6.187 52.8883 -8.03942
29 1 5.44114 53.4537 -7.8306
30 1 5.36824 53.6801 -8.76472
31 1 5.2156 54.0169 -9.65078
32 1 4.58156 54.2904 -10.229
ITEM: TIMESTEP
1210000
ITEM: NUMBER OF ATOMS
32
ITEM: BOX BOUNDS mm mm mm
-1.6000000000000000e+01 1.6000000000000000e+01
-1.6000000000000000e+01 5.2001756863822784e+01
-1.6000000000000000e+01 1.6000000000000000e+01
ITEM: ATOMS id type x y z
1 1 1.87065 48.0939 -11.0865
2 1 2.30682 48.9281 -10.7913
3 1 1.95631 49.7508 -10.5548
4 1 1.20587 50.1914 -10.2266
5 1 0.672971 50.5498 -10.9186
6 1 0.305472 51.2694 -11.2312
7 1 -0.228654 51.7036 -11.8947
8 1 -0.668969 51.7125 -12.7051
9 1 -0.523039 51.9027 -13.6466
10 1 -0.940637 51.8824 -14.5134
11 1 -0.409725 51.7324 -15.2748
12 1 0.541958 51.5696 -15.1101
13 1 1.20605 50.9093 -15.2759
14 1 1.9708 50.5101 -14.9767
15 1 2.81953 50.5531 -14.5148
16 1 3.72048 50.357 -14.2252
17 1 4.41003 50.0047 -13.6767
18 1 4.9522 49.4964 -13.0574
19 1 4.80999 48.6332 -12.8308
20 1 4.98578 47.9034 -12.2738
21 1 5.3398 47.2817 -11.6752
22 1 5.80926 46.4402 -11.5948
23 1 6.50772 45.9513 -11.201
24 1 6.64512 45.0281 -11.2792
25 1 6.10291 44.3541 -11.7397
26 1 5.36388 44.2882 -12.3803
27 1 5.41851 44.4635 -13.3138
28 1 5.04198 43.7542 -13.8712
29 1 4.21648 43.6517 -14.2731
30 1 3.45334 43.47 -14.7219
31 1 2.70154 43.0826 -15.1873
32 1 2.26363 42.2499 -15.2015
ITEM: TIMESTEP
1220000
ITEM: NUMBER OF ATOMS
32
ITEM: BOX BOUNDS mm mm mm
-1.6000000000000000e+01 1.6000000000000000e+01
-1.6000000000000000e+01 4.4259042591037399e+01
-1.6000000000000000e+01 1.6000000000000000e+01
ITEM: ATOMS id type x y z
1 1 8.97067 41.7995 -13.4909
2 1 9.03325 41.0511 -12.8505
3 1 9.49932 40.3666 -12.4476
4 1 10.3436 40.3406 -12.0439
5 1 11.0305 40.9248 -11.6987
6 1 11.338 41.7941 -11.4152
7 1 11.4977 42.6688 -11.0842
8 1 11.7643 43.6049 -11.2191
9 1 11.2673 44.2434 -10.732
10 1 10.7354 44.1872 -9.96984
11 1 10.2829 43.6345 -9.39831
12 1 9.34606 43.5043 -9.47803
13 1 8.49649 43.1113 -9.4674
14 1 7.64846 43.0149 -9.82073
15 1 7.03144 42.3018 -9.7096
16 1 6.67762 41.4472 -9.52537
17 1 7.05363 40.8526 -8.96093
18 1 6.85307 40.281 -8.26177
19 1 6.54721 39.8372 -7.50358
20 1 5.78122 39.3861 -7.88087
21 1 5.13786 38.843 -8.35581
22 1 4.26421 38.5354 -8.73001
23 1 3.47854 38.4423 -9.23919
24 1 2.74335 39.0124 -9.12419
25 1 2.3566 39.827 -8.84467
26 1 2.30651 40.5487 -8.25681
27 1 2.1936 41.2255 -7.59838
28 1 2.46927 41.5495 -6.77928
29 1 3.03848 42.2877 -6.66092
30 1 3.79716 42.8417 -6.43817
31 1 4.5426 43.3505 -6.45241
32 1 4.56203 43.6683 -5.57345
ITEM: TIMESTEP
1230000
ITEM: NUMBER OF ATOMS
32
ITEM: BOX BOUNDS mm mm mm
-1.6000000000000000e+01 1.6000000000000000e+01
-1.6000000000000000e+01 4.5064478187643267e+01
-1.6000000000000000e+01 1.6000000000000000e+01
ITEM: ATOMS id type x y z
1 1 11.156 43.0132 -3.65915
2 1 10.6923 43.5336 -4.30802
3 1 9.8076 43.5348 -4.72599
4 1 8.93607 43.8656 -4.97524
5 1 8.87168 43.5347 -5.88686
6 1 8.26146 43.0379 -6.4194
7 1 8.48105 42.1637 -6.73844
8 1 8.79026 41.3065 -6.97583
9 1 8.61266 40.8825 -6.16815
10 1 8.37337 40.5434 -5.31799
11 1 7.81466 40.4109 -4.59183
12 1 7.16212 40.1935 -4.01964
13 1 6.48484 40.1211 -3.39651
14 1 5.62975 40.2562 -2.90943
15 1 4.72446 40.1192 -2.85558
16 1 4.1661 40.1335 -3.62205
17 1 4.01029 40.1117 -4.5358
18 1 4.30581 40.0046 -5.4149
19 1 4.10312 39.6564 -6.28881
20 1 4.2042 40.1938 -7.08321
21 1 3.90309 40.1334 -7.96402
22 1 3.80839 39.8456 -8.83888
23 1 3.42277 39.8119 -9.6465
24 1 3.85611 40.4457 -10.176
25 1 4.54853 41.0353 -10.2609
26 1 5.46105 41.2463 -10.3284
27 1 6.08586 41.9036 -10.5678
28 1 6.79944 42.1929 -11.0633
29 1 7.1254 42.9176 -11.5849
30 1 6.90318 43.8399 -11.2915
31 1 6.46378 44.5061 -10.7982
32 1 6.63321 45.3703 -11.0197
ITEM: TIMESTEP
1240000
ITEM: NUMBER OF ATOMS
32
ITEM: BOX BOUNDS mm mm mm
-1.6000000000000000e+01 1.6000000000000000e+01
-1.6000000000000000e+01 4.3641193130451654e+01
-1.6000000000000000e+01 1.6000000000000000e+01
ITEM: ATOMS id type x y z
1 1 11.2585 41.5082 -1.83827
2 1 10.8625 41.4924 -2.67117
3 1 10.6508 40.9122 -3.34567
4 1 10.3377 40.0725 -3.35771
5 1 10.394 39.2029 -3.72658
6 1 9.77615 38.4624 -3.67623
7 1 9.34193 37.7777 -4.09028
8 1 9.58088 36.8994 -4.27375
9 1 8.7495 36.8594 -4.83169
10 1 7.94066 36.5175 -4.42643
11 1 7.1132 36.294 -3.9896
12 1 6.41071 36.9613 -4.24457
13 1 5.97717 37.7632 -4.14101
14 1 5.74853 38.6708 -4.24094
15 1 5.98643 39.558 -4.3312
16 1 6.92837 39.7641 -4.49518
17 1 7.6008 40.2798 -5.0213
18 1 8.17895 40.9143 -5.36811
19 1 8.37706 41.799 -5.50741
20 1 8.0297 41.9155 -6.40933
21 1 8.08196 42.6794 -6.9308
22 1 7.71364 42.9182 -7.79329
23 1 7.55932 43.5371 -8.53743
24 1 7.61445 43.7929 -9.42957
25 1 7.73384 43.3716 -10.2266
26 1 8.09368 42.7289 -10.8123
27 1 8.6661 42.8816 -11.497
28 1 8.95781 42.5657 -12.3185
29 1 9.40941 41.9713 -12.9703
30 1 9.98905 41.3328 -13.3932
31 1 9.73128 40.7471 -14.0134
32 1 9.55647 40.2225 -14.7508
ITEM: TIMESTEP
1250000
ITEM: NUMBER OF ATOMS
32
ITEM: BOX BOUNDS mm mm mm
-1.6000000000000000e+01 1.6000000000000000e+01
-1.6000000000000000e+01 4.5283432335820457e+01
-1.6000000000000000e+01 1.6000000000000000e+01
ITEM: ATOMS id type x y z
1 1 7.6416 40.3533 -6.63251
2 1 8.36962 40.7261 -6.12111
3 1 8.79824 41.3885 -5.62412
4 1 8.91989 42.0986 -5.04046
5 1 8.44786 42.8706 -5.26548
6 1 8.00271 42.6175 -6.07138
7 1 7.54309 42.8551 -6.87531
8 1 7.57833 43.7631 -7.22392
9 1 7.39036 44.5612 -7.66353
10 1 6.87737 44.7643 -8.45665
11 1 6.16981 44.6916 -9.13663
12 1 5.37405 45.2138 -8.93496
13 1 4.89675 45.0339 -8.16685
14 1 4.52136 44.3787 -7.51742
15 1 4.73817 43.5672 -7.11538
16 1 5.00287 42.7515 -6.7942
17 1 5.49022 42.026 -7.1161
18 1 5.93912 41.3859 -7.62477
19 1 6.83651 41.1312 -7.86566
20 1 7.72657 41.0508 -8.10644
21 1 7.81578 40.4947 -8.87495
22 1 8.22542 39.7889 -9.36612
23 1 8.80851 39.1074 -9.49198
24 1 9.03632 39.1565 -10.4228
25 1 9.1473 38.8876 -11.3184
26 1 8.92088 38.4181 -12.0571
27 1 8.28936 37.6921 -11.9987
28 1 8.43395 36.7807 -12.3737
29 1 8.16636 35.9513 -12.7375
30 1 7.75878 35.3203 -13.3986
31 1 7.40819 35.9412 -14.0408
32 1 7.79723 36.7161 -14.4769
ITEM: TIMESTEP
1260000
ITEM: NUMBER OF ATOMS
32
ITEM: BOX BOUNDS mm mm mm
-1.6000000000000000e+01 1.6000000000000000e+01
-1.6000000000000000e+01 4.3155610614652822e+01
-1.8921224616607464e+01 1.6000000000000000e+01
ITEM: ATOMS id type x y z
1 1 9.42697 40.6823 -13.5651
2 1 9.24903 41.4803 -14.124
3 1 8.88368 42.0162 -14.7895
4 1 8.29802 42.5424 -15.1809
5 1 7.52475 42.6433 -15.7735
6 1 7.42578 42.976 -16.6656
7 1 6.87428 42.4238 -17.247
8 1 6.61614 41.5918 -17.6643
9 1 6.17408 40.8443 -18.0764
10 1 5.30007 40.455 -18.0716
11 1 4.41742 40.3568 -17.9197
12 1 3.98748 40.3456 -18.7997
13 1 3.2569 40.5425 -18.2788
14 1 3.19405 41.2603 -17.638
15 1 3.82424 41.506 -16.9928
16 1 4.72526 41.4279 -16.801
17 1 4.97637 41.5201 -15.8519
18 1 5.15484 40.6729 -15.571
19 1 5.3447 39.8128 -15.8048
20 1 5.52352 38.8625 -15.5512
21 1 4.91844 38.1803 -15.2816
22 1 5.13358 37.4013 -14.8536
23 1 5.58271 36.5932 -14.6289
24 1 6.39357 36.272 -14.9332
25 1 6.97424 35.5516 -14.8023
26 1 7.51949 35.009 -15.4279
27 1 8.43842 35.1613 -15.6365
28 1 9.34664 35.4179 -15.5504
29 1 10.0171 34.9124 -15.1258
30 1 10.5467 34.1746 -15.2259
31 1 10.3025 33.3043 -15.5326
32 1 9.72216 32.5613 -15.2329
ITEM: TIMESTEP
1270000
ITEM: NUMBER OF ATOMS
32
ITEM: BOX BOUNDS mm mm mm
-1.6000000000000000e+01 1.6000000000000000e+01
-1.6000000000000000e+01 4.5330156004899266e+01
-1.7910754498874571e+01 1.6000000000000000e+01
ITEM: ATOMS id type x y z
1 1 0.160198 45.4388 -15.2812
2 1 0.524826 44.5323 -15.3051
3 1 1.14458 43.8617 -15.4992
4 1 1.71352 43.5895 -14.8218
5 1 2.36759 43.4192 -14.1831
6 1 3.22523 43.1078 -13.9976
7 1 3.93461 42.7271 -14.5367
8 1 4.60101 42.7984 -15.1892
9 1 5.08945 42.6155 -16.0303
10 1 5.85496 42.1924 -16.5257
11 1 6.21388 41.5423 -17.0775
12 1 5.99246 40.7685 -17.5268
13 1 5.3004 40.2902 -17.9846
14 1 4.68577 39.5312 -18.0013
15 1 4.21237 38.7614 -17.9252
16 1 3.9759 38.0067 -17.3277
17 1 3.96776 37.2418 -16.7864
18 1 3.60259 36.3618 -16.9763
19 1 3.83407 35.5181 -16.645
20 1 3.98031 35.0196 -15.8672
21 1 3.86345 34.4011 -15.1658
22 1 4.17782 33.96 -14.348
23 1 4.495 33.8968 -13.4821
24 1 5.05276 33.7494 -12.743
25 1 5.8343 34.104 -12.2309
26 1 6.64441 33.6853 -12.0123
27 1 7.37261 33.1844 -12.3477
28 1 8.24471 32.8226 -12.5733
29 1 9.10857 32.4019 -12.7475
30 1 9.92408 32.7407 -13.0485
31 1 10.4742 32.3379 -13.7188
32 1 10.8756 31.7874 -13.0983
ITEM: TIMESTEP
1280000
ITEM: NUMBER OF ATOMS
32
ITEM: BOX BOUNDS mm mm mm
-1.6000000000000000e+01 1.6000000000000000e+01
-1.6000000000000000e+01 4.3770682120290772e+01
-1.9942657493608309e+01 1.6000000000000000e+01
ITEM: ATOMS id type x y z
1 1 5.08894 43.4299 -19.4081
2 1 4.20819 43.2735 -19.8055
3 1 3.79243 43.5054 -19.0147
4 1 3.38053 43.573 -18.2031
5 1 2.58548 43.364 -17.7537
6 1 1.84882 42.7526 -17.7332
7 1 1.28893 42.1578 -18.2486
8 1 0.982155 41.3468 -17.8397
9 1 0.781089 40.8837 -17.0935
10 1 1.40684 40.374 -16.5454
11 1 1.8559 39.743 -16.0435
12 1 1.83427 38.8625 -16.4937
13 1 1.90852 37.983 -16.8682
14 1 1.75341 37.6045 -17.7451
15 1 1.994 37.8027 -18.6274
16 1 2.52591 37.6751 -19.3882
17 1 2.32772 36.8414 -19.8492
18 1 2.37761 35.8951 -20.008
19 1 2.68622 35.0201 -19.6501
20 1 2.51374 34.1654 -19.3596
21 1 2.2069 33.9297 -18.5184
22 1 2.1413 33.2385 -17.831
23 1 2.07933 32.5001 -17.2369
24 1 2.55466 32.1708 -16.5049
25 1 2.98736 32.1447 -15.6875
26 1 2.41952 32.161 -14.9501
27 1 2.17396 32.3966 -14.1236
28 1 1.7956 32.3137 -13.2264
29 1 1.86849 31.8659 -12.4339
30 1 2.79534 31.7785 -12.0398
31 1 3.11722 30.9595 -11.6576
32 1 3.62378 30.2106 -11.374
ITEM: TIMESTEP
1290000
ITEM: NUMBER OF ATOMS
32
ITEM: BOX BOUNDS mm mm mm
-1.6000000000000000e+01 1.6000000000000000e+01
-1.6000000000000000e+01 4.1396945859717682e+01
-2.2561691517543661e+01 1.6000000000000000e+01
ITEM: ATOMS id type x y z
1 1 1.24827 38.9099 -22.4125
2 1 1.16009 39.5733 -21.6805
3 1 0.915437 39.971 -20.8688
4 1 1.26196 40.3877 -20.1309
5 1 1.0989 40.906 -19.3662
6 1 0.227448 41.0592 -18.994
7 1 -0.726847 40.9454 -18.7457
8 1 -1.4987 40.5497 -18.4853
9 1 -2.02731 39.9848 -17.9548
10 1 -2.22059 39.7906 -17.0404
11 1 -3.01857 39.6066 -16.503
12 1 -3.92462 39.6858 -16.0853
13 1 -4.53144 38.9952 -15.9749
14 1 -4.70915 38.1973 -16.3827
15 1 -4.72241 37.6887 -17.1806
16 1 -4.13148 37.0102 -17.1891
17 1 -3.63301 36.1938 -17.4034
18 1 -2.82505 36.1803 -17.9656
19 1 -2.00037 35.8448 -17.6173
20 1 -1.17558 35.528 -17.4871
21 1 -0.473883 34.9516 -17.2611
22 1 0.372482 34.6941 -17.4467
23 1 1.29887 34.8052 -17.5603
24 1 1.9826 34.3073 -17.322
25 1 2.28988 33.4186 -17.0235
26 1 2.47926 32.7843 -16.3795
27 1 2.27634 31.8853 -16.3175
28 1 1.82952 31.0508 -16.1757
29 1 1.49728 30.4273 -16.7935
30 1 1.58332 29.8339 -17.5466
31 1 1.81109 28.9541 -17.7298
32 1 1.61943 28.0787 -18.0156
ITEM: TIMESTEP
1300000
ITEM: NUMBER OF ATOMS
32
ITEM: BOX BOUNDS mm mm mm
-1.6000000000000000e+01 1.6000000000000000e+01
-1.6000000000000000e+01 3.9690161129386212e+01
-2.3373081630356118e+01 1.6000000000000000e+01
ITEM: ATOMS id type x y z
1 1 3.81372 38.8453 -20.9157
2 1 2.88326 38.7593 -20.9954
3 1 1.95569 38.7617 -21.2488
4 1 2.51042 39.3745 -21.675
5 1 3.33578 39.4965 -22.1546
6 1 3.30161 38.9866 -22.9251
7 1 3.34688 38.118 -23.1321
8 1 3.58522 37.193 -23.3315
9 1 4.33247 36.6197 -23.422
10 1 4.92562 36.5016 -22.6303
11 1 4.51506 36.3105 -21.8323
12 1 3.91619 36.0178 -21.192
13 1 3.42543 35.5374 -20.506
14 1 3.16929 34.7921 -19.9896
15 1 3.26835 34.0723 -19.4617
16 1 2.99126 33.5797 -18.7361
17 1 3.1983 32.9281 -18.0589
18 1 3.21918 32.0711 -17.6673
19 1 3.0664 31.211 -17.253
20 1 2.56435 30.8142 -16.5855
21 1 1.6737 30.5785 -16.5851
22 1 1.39359 30.2629 -15.7361
23 1 1.10762 30.0479 -14.8343
24 1 1.50469 29.7387 -14.024
25 1 1.80849 29.8384 -13.125
26 1 2.38116 30.1611 -12.4619
27 1 2.73549 30.6237 -11.7459
28 1 2.9576 30.8089 -10.8046
29 1 3.62939 30.3412 -10.3383
30 1 3.3665 29.8788 -9.54953
31 1 3.06836 29.5964 -8.74462
32 1 2.14922 29.3954 -8.91093
ITEM: TIMESTEP
1310000
ITEM: NUMBER OF ATOMS
32
ITEM: BOX BOUNDS mm mm mm
-1.6000000000000000e+01 1.6000000000000000e+01
-1.6000000000000000e+01 3.9282912450411580e+01
-2.2672795084708593e+01 1.6000000000000000e+01
ITEM: ATOMS id type x y z
1 1 -1.03461 39.0663 -22.4208
2 1 -1.92999 38.8549 -22.1249
3 1 -2.45818 38.6393 -21.4231
4 1 -3.096 38.6335 -20.7404
5 1 -3.22798 37.9189 -20.106
6 1 -3.04648 37.3705 -19.3599
7 1 -3.08631 36.6508 -18.7556
8 1 -2.72651 36.4854 -17.9343
9 1 -1.81467 36.5499 -17.8467
10 1 -1.03658 36.0473 -17.9072
11 1 -0.387385 35.3571 -17.8355
12 1 0.270269 34.992 -17.272
13 1 0.787896 34.9976 -16.4599
14 1 1.18672 34.6931 -15.6235
15 1 1.37346 34.4153 -14.737
16 1 2.08665 33.9138 -14.3216
17 1 2.86342 33.8276 -13.7222
18 1 3.07948 33.4343 -12.8801
19 1 3.80707 33.0381 -12.3378
20 1 4.59749 32.6628 -12.0632
21 1 5.38406 32.8315 -11.5735
22 1 5.92009 33.0227 -10.8206
23 1 6.58766 32.8605 -10.2005
24 1 7.07834 32.1156 -9.99961
25 1 7.52082 31.2578 -10.2317
26 1 8.11104 30.5613 -10.4816
27 1 8.67919 29.8614 -10.868
28 1 9.5259 29.7977 -11.4311
29 1 9.93473 28.9307 -11.3045
30 1 10.6335 28.4623 -10.9587
31 1 11.2616 27.8078 -11.1774
32 1 11.4352 26.9177 -11.4615
ITEM: TIMESTEP
1320000
ITEM: NUMBER OF ATOMS
32
ITEM: BOX BOUNDS mm mm mm
-1.6000000000000000e+01 1.6000000000000000e+01
-1.6000000000000000e+01 3.8558488272701709e+01
-1.8075653991799744e+01 1.6000000000000000e+01