ITEM: TIMESTEP
3440000
ITEM: NUMBER OF ATOMS
32
ITEM: BOX BOUNDS mm mm mm
-8.5380407843024173e+01 1.6000000000000000e+01
-1.6000000000000000e+01 1.2709598408353315e+02
-1.6000000000000000e+01 3.3123867057434978e+01
ITEM: ATOMS id type x y z
1 1 -70.7918 127.082 25.7099
2 1 -70.765 126.27 26.1347
3 1 -70.6916 125.532 26.6128
4 1 -70.4454 124.831 27.1948
5 1 -70.1897 124.207 27.8423
6 1 -70.035 123.552 28.5176
7 1 -69.9664 122.986 29.215
8 1 -70.1616 122.363 29.9453
9 1 -70.4794 121.575 30.3931
10 1 -70.8379 120.799 30.8928
11 1 -71.1675 120.01 31.3005
12 1 -71.4087 119.141 31.564
13 1 -71.8837 118.415 31.8789
14 1 -72.4642 117.721 32.0714
15 1 -73.2107 117.104 32.2447
16 1 -73.9095 116.5 32.4786
17 1 -74.5639 115.84 32.6589
18 1 -75.4261 115.49 32.7769
19 1 -76.276 115.017 32.846
20 1 -76.9931 114.447 32.9051
21 1 -77.753 113.929 33.119
22 1 -78.5383 113.387 32.9222
23 1 -79.4254 113.112 32.7879
24 1 -80.3058 112.877 32.4952
25 1 -81.0678 112.636 32.0003
26 1 -81.901 112.46 31.5893
27 1 -82.6372 112.122 31.1459
28 1 -83.4401 111.836 30.799
29 1 -84.0721 111.332 30.2665
30 1 -84.4885 110.748 29.6658
31 1 -84.9057 110.168 28.9669
32 1 -85.3703 110.036 28.1269
ITEM: TIMESTEP
3450000
ITEM: NUMBER OF ATOMS
32
ITEM: BOX BOUNDS mm mm mm
-7.2748118084414912e+01 1.6000000000000000e+01
-1.6000000000000000e+01 1.2467310439542538e+02
-1.6000000000000000e+01 3.6616811621588099e+01
ITEM: ATOMS id type x y z
1 1 -71.6768 122.868 25.4882
2 1 -72.1652 123.118 26.3033
3 1 -72.2324 123.576 27.088
4 1 -72.2796 124.066 27.8782
5 1 -72.5018 124.539 28.6529
6 1 -72.6744 124.453 29.5564
7 1 -72.6294 124.284 30.4846
8 1 -72.3529 123.929 31.3203
9 1 -72.2761 123.502 32.2135
10 1 -72.1048 122.944 33.0437
11 1 -71.817 122.643 33.9012
12 1 -71.4582 122.217 34.6433
13 1 -71.0768 121.639 35.3322
14 1 -70.6585 120.943 35.7613
15 1 -70.3269 120.089 36.0612
16 1 -70.2143 119.173 36.4219
17 1 -70.1359 118.26 36.4151
18 1 -70.1353 117.275 36.4538
19 1 -70.0323 116.315 36.4429
20 1 -70.0964 115.381 36.206
21 1 -70.4102 114.471 36.4271
22 1 -70.6665 113.555 36.6691
23 1 -70.8578 112.569 36.6326
24 1 -70.9088 111.617 36.4686
25 1 -70.837 110.649 36.3044
26 1 -70.4554 109.856 35.9432
27 1 -70.1389 109.041 35.6975
28 1 -70.2889 108.16 35.4536
29 1 -70.4445 107.268 35.238
30 1 -70.7378 106.367 35.188
31 1 -70.882 105.472 35.3497
32 1 -71.2671 104.63 35.2196
ITEM: TIMESTEP
3460000
ITEM: NUMBER OF ATOMS
32
ITEM: BOX BOUNDS mm mm mm
-7.5988210998899930e+01 1.6000000000000000e+01
-1.6000000000000000e+01 1.2387711116886420e+02
-1.6000000000000000e+01 3.3311573378443107e+01
ITEM: ATOMS id type x y z
1 1 -76.0181 123.559 21.6087
2 1 -75.755 123.004 22.3208
3 1 -75.2159 122.519 22.9659
4 1 -74.8052 122.093 23.6776
5 1 -74.4163 121.73 24.4773
6 1 -74.2307 121.31 25.2866
7 1 -74.3475 120.88 26.0782
8 1 -74.3396 120.268 26.8398
9 1 -74.2087 119.706 27.5773
10 1 -74.0774 119.043 28.2631
11 1 -73.4953 118.691 28.8494
12 1 -72.8315 118.315 29.3895
13 1 -72.0637 117.816 29.6121
14 1 -71.3695 117.304 30.0304
15 1 -70.6927 116.794 30.4769
16 1 -70.0294 116.219 30.7048
17 1 -69.4501 115.573 31.011
18 1 -68.9476 114.956 31.5113
19 1 -68.3624 114.19 31.8103
20 1 -68.1044 113.402 32.2401
21 1 -67.6684 112.661 32.6766
22 1 -67.2387 111.909 33.0051
23 1 -66.7251 111.146 33.1449
24 1 -66.3538 110.295 33.1604
25 1 -66.0962 109.403 33.1906
26 1 -65.9695 108.481 33.1181
27 1 -65.9839 107.512 32.9771
28 1 -66.0428 106.574 32.9891
29 1 -66.3946 105.66 33.0151
30 1 -66.7414 104.838 33.1049
31 1 -67.0484 103.969 33.0589
32 1 -67.4536 103.033 32.9976
ITEM: TIMESTEP
3470000
ITEM: NUMBER OF ATOMS
32
ITEM: BOX BOUNDS mm mm mm
-7.7827830676405313e+01 1.6000000000000000e+01
-1.6000000000000000e+01 1.2800133534877057e+02
-1.6000000000000000e+01 3.1694831012427844e+01
ITEM: ATOMS id type x y z
1 1 -72.8061 127.697 16.5083
2 1 -73.328 127.383 17.1813
3 1 -73.9072 127.045 17.8764
4 1 -74.3669 126.864 18.6604
5 1 -74.9613 126.51 19.3296
6 1 -75.4316 126.063 20.0263
7 1 -75.7889 125.903 20.8495
8 1 -76.0039 125.627 21.7436
9 1 -76.2464 125.293 22.5812
10 1 -76.3753 125.271 23.5142
11 1 -76.7705 125.202 24.3686
12 1 -76.7895 124.867 25.248
13 1 -76.9479 124.392 26.1024
14 1 -77.2373 123.791 26.8006
15 1 -77.3974 123.066 27.394
16 1 -77.6123 122.443 28.049
17 1 -77.4463 121.755 28.7315
18 1 -77.4489 121.1 29.3923
19 1 -77.5934 120.48 30.1044
20 1 -77.7033 119.797 30.7138
21 1 -77.6478 118.957 31.1643
22 1 -77.3634 118.112 31.4393
23 1 -76.9196 117.293 31.7527
24 1 -76.5339 116.485 31.6558
25 1 -76.104 115.724 31.2954
26 1 -75.6545 114.945 30.9897
27 1 -75.1877 114.112 30.8102
28 1 -74.7861 113.298 30.3836
29 1 -74.3025 112.721 29.7395
30 1 -73.5663 112.409 29.3036
31 1 -72.8285 112.141 28.803
32 1 -72.0003 111.867 28.4242
ITEM: TIMESTEP
3480000
ITEM: NUMBER OF ATOMS
32
ITEM: BOX BOUNDS mm mm mm
-7.7220645737827638e+01 1.6000000000000000e+01
-1.6000000000000000e+01 1.2898142189824745e+02
-1.6000000000000000e+01 3.2155933170867591e+01
ITEM: ATOMS id type x y z
1 1 -75.4841 128.23 14.2099
2 1 -75.2146 128.554 15.0421
3 1 -74.9376 128.666 15.9303
4 1 -74.6519 128.834 16.7842
5 1 -74.7967 128.902 17.6788
6 1 -75.2082 128.904 18.5181
7 1 -75.7837 128.801 19.1953
8 1 -76.2368 128.591 19.9936
9 1 -76.5382 128.474 20.8918
10 1 -76.8017 128.199 21.7379
11 1 -77.0226 127.91 22.5924
12 1 -76.9482 127.437 23.4191
13 1 -77.0691 126.806 24.2256
14 1 -76.9334 126.286 25.0134
15 1 -76.8601 125.901 25.9196
16 1 -76.619 125.376 26.677
17 1 -76.1871 124.962 27.3855
18 1 -75.8736 124.375 28.0311
19 1 -75.4078 123.693 28.4795
20 1 -74.7165 123.195 28.8107
21 1 -74.1996 122.497 29.2937
22 1 -73.5772 121.81 29.6452
23 1 -73.0239 121.079 29.8319
24 1 -72.6527 120.233 29.889
25 1 -72.5543 119.319 30.0552
26 1 -72.5161 118.427 30.2573
27 1 -72.432 117.467 30.495
28 1 -72.5528 116.604 30.782
29 1 -72.6817 115.792 31.2078
30 1 -72.9226 114.994 31.6515
31 1 -73.143 114.067 31.8637
32 1 -73.0717 113.118 31.7508
ITEM: TIMESTEP
3490000
ITEM: NUMBER OF ATOMS
32
ITEM: BOX BOUNDS mm mm mm
-7.9701230089514510e+01 1.6000000000000000e+01
-1.6000000000000000e+01 1.3381093488441462e+02
-1.6000000000000000e+01 3.8548897039791918e+01
ITEM: ATOMS id type x y z
1 1 -79.7754 133.731 18.5798
2 1 -79.0349 133.612 19.0935
3 1 -78.2678 133.344 19.566
4 1 -77.6238 132.997 20.1793
5 1 -77.0317 132.767 20.9358
6 1 -76.271 132.399 21.4784
7 1 -75.6031 131.939 22.0197
8 1 -75.2348 131.275 22.6043
9 1 -75.0188 130.757 23.3882
10 1 -74.6074 130.26 24.1493
11 1 -74.2616 129.615 24.7275
12 1 -74.0671 129.038 25.4408
13 1 -73.9495 128.309 26.0441
14 1 -73.9971 127.659 26.6789
15 1 -74.0305 127.095 27.3513
16 1 -74.102 126.412 27.9815
17 1 -74.097 125.563 28.4335
18 1 -74.0501 124.714 28.8873
19 1 -74.3073 124.028 29.4479
20 1 -74.8071 123.36 29.9683
21 1 -75.4349 122.78 30.4059
22 1 -75.8699 122.12 30.8126
23 1 -76.1813 121.665 31.614
24 1 -76.4524 121.364 32.39
25 1 -76.6054 121.147 33.2829
26 1 -77.1413 121.106 34.0807
27 1 -77.4925 121.24 35.0306
28 1 -77.9885 121.059 35.8182
29 1 -78.4883 120.834 36.5916
30 1 -79.0301 120.514 37.2046
31 1 -79.5405 119.971 37.7591
32 1 -79.9392 119.143 38.0526
ITEM: TIMESTEP
3500000
ITEM: NUMBER OF ATOMS
32
ITEM: BOX BOUNDS mm mm mm
-8.0282849195616038e+01 1.6000000000000000e+01
-1.6000000000000000e+01 1.3794825555657741e+02
-1.6000000000000000e+01 3.8528551461615649e+01
ITEM: ATOMS id type x y z
1 1 -77.4147 137.705 22.9078
2 1 -77.399 136.986 23.4849
3 1 -77.3054 136.251 24.0654
4 1 -77.3498 135.703 24.8545
5 1 -77.1878 134.968 25.3841
6 1 -76.6407 134.374 25.8662
7 1 -76.0524 133.716 26.1937
8 1 -75.4825 133.041 26.5849
9 1 -75.0465 132.425 27.1106
10 1 -74.5943 131.906 27.7974
11 1 -74.4248 131.265 28.528
12 1 -74.3651 130.542 29.1408
13 1 -74.2748 129.63 29.5488
14 1 -74.3075 128.894 30.1717
15 1 -74.4159 128.269 30.8711
16 1 -74.6185 127.674 31.5817
17 1 -74.9697 127.006 32.125
18 1 -75.4134 126.401 32.66
19 1 -75.7892 125.785 33.2124
20 1 -76.204 125.189 33.7865
21 1 -76.5999 124.459 34.2989
22 1 -76.7005 123.603 34.7241
23 1 -76.7787 122.843 35.2067
24 1 -77.0602 122.118 35.7378
25 1 -77.3875 121.261 35.9895
26 1 -77.8925 120.523 36.2782
27 1 -78.2643 119.745 36.6181
28 1 -78.7467 119.027 36.9867
29 1 -79.1293 118.267 37.2973
30 1 -79.3575 117.514 37.7688
31 1 -79.6701 116.75 38.2563
32 1 -79.9074 115.864 38.496
ITEM: TIMESTEP
3510000
ITEM: NUMBER OF ATOMS
32
ITEM: BOX BOUNDS mm mm mm
-8.1291969857636971e+01 1.6000000000000000e+01
-1.6000000000000000e+01 1.3936235519068097e+02
-1.6000000000000000e+01 3.9584119641156718e+01
ITEM: ATOMS id type x y z
1 1 -70.6775 139.509 22.7868
2 1 -70.3419 138.685 23.1475
3 1 -70.1092 137.875 23.6093
4 1 -70.1962 137.107 24.2749
5 1 -70.199 136.464 24.9145
6 1 -70.172 135.771 25.5447
7 1 -70.0795 135.161 26.3274
8 1 -70.1459 134.603 27.0868
9 1 -70.087 133.966 27.8339
10 1 -70.0684 133.206 28.4098
11 1 -70.1104 132.579 29.1237
12 1 -70.2039 132.146 29.9706
13 1 -70.2334 131.98 30.8614
14 1 -70.3048 131.347 31.5039
15 1 -70.4814 130.722 32.2092
16 1 -70.7259 129.948 32.7172
17 1 -70.7821 129.182 33.2541
18 1 -70.9691 128.441 33.8773
19 1 -71.598 128.239 34.5813
20 1 -72.3888 127.977 35.0121
21 1 -73.1186 127.729 35.5786
22 1 -73.6152 127.454 36.2977
23 1 -74.249 127.05 36.9365
24 1 -74.9244 126.846 37.5679
25 1 -75.6615 126.409 38.065
26 1 -76.405 126.092 38.5453
27 1 -77.1968 125.832 38.9513
28 1 -77.9401 125.355 39.3847
29 1 -78.8607 125.086 39.5821
30 1 -79.7927 124.761 39.6533
31 1 -80.5359 124.248 39.3781
32 1 -81.3415 123.75 39.0589
ITEM: TIMESTEP
3520000
ITEM: NUMBER OF ATOMS
32
ITEM: BOX BOUNDS mm mm mm
-8.0615761400212563e+01 1.6000000000000000e+01
-1.6000000000000000e+01 1.3449364426081547e+02
-1.6000000000000000e+01 4.2564293206665688e+01
ITEM: ATOMS id type x y z
1 1 -67.7479 129.438 23.7812
2 1 -68.0854 129.855 24.5026
3 1 -68.3148 130.208 25.3673
4 1 -68.4859 130.816 26.1296
5 1 -68.644 131.111 26.98
6 1 -68.8472 131.33 27.8714
7 1 -68.9831 131.777 28.7028
8 1 -69.1625 132.147 29.6123
9 1 -69.1571 132.658 30.4039
10 1 -69.0998 133.041 31.3036
11 1 -69.0138 133.207 32.2035
12 1 -69.2274 133.467 33.0819
13 1 -69.5177 133.757 33.9796
14 1 -70.0758 134.041 34.6674
15 1 -70.6325 134.323 35.3528
16 1 -71.32 134.254 36.0018
17 1 -72.0039 134.144 36.6218
18 1 -72.7051 133.798 37.1904
19 1 -73.4162 133.424 37.6184
20 1 -74.2498 133.191 37.8392
21 1 -75.1553 133.043 38.0352
22 1 -76.1026 132.797 38.1813
23 1 -76.954 132.741 38.5939
24 1 -77.5984 132.148 39.0359
25 1 -78.1849 131.737 39.6192
26 1 -78.6548 131.373 40.3854
27 1 -78.9554 130.755 40.9761
28 1 -79.2646 129.944 41.3748
29 1 -79.5295 129.089 41.6366
30 1 -79.5491 128.161 41.7086
31 1 -79.8312 127.305 41.7949
32 1 -80.2285 126.534 41.9935
ITEM: TIMESTEP
3530000
ITEM: NUMBER OF ATOMS
32
ITEM: BOX BOUNDS mm mm mm
-8.5312313876463648e+01 1.6000000000000000e+01
-1.6000000000000000e+01 1.4307626443592594e+02
-1.6000000000000000e+01 4.0431249024331251e+01
ITEM: ATOMS id type x y z
1 1 -66.1648 143.146 34.0208
2 1 -66.1349 142.182 34.1553
3 1 -66.1544 141.22 34.1491
4 1 -66.2991 140.368 34.4438
5 1 -65.9924 139.442 34.7773
6 1 -65.9436 138.6 35.1507
7 1 -65.8183 137.791 35.675
8 1 -65.8912 137.006 36.2687
9 1 -65.9599 136.28 36.8249
10 1 -66.161 135.498 37.2461
11 1 -66.6707 134.721 37.5916
12 1 -67.1435 133.963 37.8476
13 1 -68.0074 133.637 37.9894
14 1 -68.9302 133.397 38.0973
15 1 -69.8408 133.062 38.2767
16 1 -70.738 132.917 38.4615
17 1 -71.5955 132.722 38.8167
18 1 -72.4857 132.739 39.1838
19 1 -73.4056 133.027 39.2961
20 1 -74.3187 133.231 39.4068
21 1 -75.2845 133.547 39.5069
22 1 -76.1711 133.719 39.6612
23 1 -77.0409 133.871 39.8996
24 1 -77.9726 133.957 39.877
25 1 -78.896 134.021 40.0055
26 1 -79.7794 134.301 39.9281
27 1 -80.6968 134.453 40.0833
28 1 -81.5732 134.617 40.3717
29 1 -82.4388 134.935 40.3907
30 1 -83.3663 135.082 40.4599
31 1 -84.3005 134.903 40.3814
32 1 -85.2133 135.059 40.3561
ITEM: TIMESTEP
3540000
ITEM: NUMBER OF ATOMS
32
ITEM: BOX BOUNDS mm mm mm
-8.6389573704411220e+01 1.6000000000000000e+01
-1.6000000000000000e+01 1.4294956012753281e+02
-1.6000000000000000e+01 4.4563743972683675e+01
ITEM: ATOMS id type x y z
1 1 -59.6358 137.893 38.2282
2 1 -60.4681 138.251 38.131
3 1 -61.3865 138.48 37.8803
4 1 -62.2445 138.739 37.6469
5 1 -63.1113 138.982 37.4699
6 1 -64.0265 139.022 37.4641
7 1 -64.9846 138.934 37.5582
8 1 -65.9264 138.779 37.6532
9 1 -66.898 138.766 37.8937
10 1 -67.8053 138.973 38.1745
11 1 -68.6707 139.175 38.5443
12 1 -69.4781 139.648 38.8356
13 1 -70.3868 139.875 38.9591
14 1 -71.2375 140.269 38.8955
15 1 -72.1511 140.486 38.8506
16 1 -73.0338 140.65 38.8953
17 1 -73.8818 141.037 38.9722
18 1 -74.7453 141.216 39.2657
19 1 -75.6803 141.367 39.4564
20 1 -76.5354 141.71 39.7044
21 1 -77.4621 141.962 39.8677
22 1 -78.354 142.122 40.0794
23 1 -79.2322 142.223 40.4518
24 1 -80.028 142.383 40.8561
25 1 -80.7732 142.525 41.4025
26 1 -81.407 142.425 42.0455
27 1 -82.11 142.404 42.6141
28 1 -82.8042 142.501 43.2295
29 1 -83.6143 142.711 43.6938
30 1 -84.5073 142.767 43.9699
31 1 -85.4096 142.812 44.3174
32 1 -86.2884 143.008 44.5513
ITEM: TIMESTEP
3550000
ITEM: NUMBER OF ATOMS
32
ITEM: BOX BOUNDS mm mm mm
-8.3402527128525008e+01 1.6000000000000000e+01
-1.6000000000000000e+01 1.4260529800094474e+02
-1.6000000000000000e+01 4.0755131726240343e+01
ITEM: ATOMS id type x y z
1 1 -62.1592 139.055 33.6287
2 1 -62.4502 139.076 34.4928
3 1 -62.6549 139.213 35.3888
4 1 -62.4816 139.608 36.2226
5 1 -62.5398 140.108 37.0455
6 1 -62.8032 140.534 37.8454
7 1 -63.4347 140.934 38.4525
8 1 -64.0487 141.406 38.9621
9 1 -64.704 141.834 39.4349
10 1 -65.4396 142.295 39.8595
11 1 -66.24 142.48 40.3448
12 1 -67.1925 142.36 40.4548
13 1 -68.0711 142.094 40.4383
14 1 -68.8949 141.602 40.53
15 1 -69.6957 141.08 40.6086
16 1 -70.5627 140.631 40.7143
17 1 -71.312 140.17 40.4403
18 1 -72.1568 139.798 40.3604
19 1 -73.0745 139.662 40.5302
20 1 -74.0767 139.658 40.6795
21 1 -75.0069 139.823 40.7808
22 1 -75.9111 140.139 40.8523
23 1 -76.8196 140.332 40.5816
24 1 -77.657 140.544 40.235
25 1 -78.4386 140.941 39.8262
26 1 -79.2505 141.394 39.539
27 1 -80.1598 141.623 39.2052
28 1 -80.9268 141.483 38.7463
29 1 -81.6548 141.425 38.0979
30 1 -82.2964 141.597 37.4062
31 1 -82.9403 141.762 36.7628
32 1 -83.4022 142.17 36.0499
ITEM: TIMESTEP
3560000
ITEM: NUMBER OF ATOMS
32
ITEM: BOX BOUNDS mm mm mm
-8.4370308138196918e+01 1.6000000000000000e+01
-1.6000000000000000e+01 1.4551837562860470e+02
-1.6000000000000000e+01 3.9850644618882789e+01
ITEM: ATOMS id type x y z
1 1 -59.2469 138.795 31.4973
2 1 -59.9878 138.529 32.0004
3 1 -60.726 138.347 32.5013
4 1 -61.5919 138.18 32.8051
5 1 -62.534 138.191 33.017
6 1 -63.5289 138.346 33.189
7 1 -64.3085 138.52 33.5807
8 1 -65.2698 138.513 33.8248
9 1 -66.2403 138.417 33.9186
10 1 -67.1377 138.263 34.1654
11 1 -68.0183 138.456 34.418
12 1 -68.8595 138.767 34.7039
13 1 -69.7337 138.994 35.0418
14 1 -70.5581 139.162 35.3502
15 1 -71.3154 139.263 35.8193
16 1 -72.1117 139.347 36.3291
17 1 -72.8463 139.473 36.9395
18 1 -73.5101 139.596 37.5075
19 1 -74.3523 139.824 37.8801
20 1 -75.1848 140.303 38.1667
21 1 -76.034 140.509 38.4541
22 1 -76.9001 140.866 38.6686
23 1 -77.6448 141.245 39.1642
24 1 -78.5738 141.505 39.3246
25 1 -79.4375 141.886 39.3723
26 1 -80.2625 142.434 39.2768
27 1 -81.0109 142.96 39.2402
28 1 -81.6136 143.629 39.3113
29 1 -82.5611 144.086 39.2723
30 1 -83.2261 144.551 38.8137
31 1 -83.8343 145.086 38.3326
32 1 -84.3906 145.715 37.8806
ITEM: TIMESTEP
3570000
ITEM: NUMBER OF ATOMS
32
ITEM: BOX BOUNDS mm mm mm
-8.3312118584555151e+01 1.6000000000000000e+01
-1.6000000000000000e+01 1.4402277484619842e+02
-1.6000000000000000e+01 4.3503073366710723e+01
ITEM: ATOMS id type x y z
1 1 -57.4185 143.294 31.9546
2 1 -58.2459 143.711 32.2033
3 1 -59.1745 143.946 32.311
4 1 -60.1129 143.948 32.5211
5 1 -60.9737 143.69 32.7399
6 1 -61.8497 143.602 32.9823
7 1 -62.6907 143.367 33.4089
8 1 -63.5614 143.387 33.8037
9 1 -64.4712 143.418 34.17
10 1 -65.35 143.352 34.5299
11 1 -66.0597 142.983 35.0667
12 1 -66.7963 142.74 35.6326
13 1 -67.4407 142.276 36.1378
14 1 -68.2191 141.961 36.4613
15 1 -69.1767 142.062 36.7318
16 1 -70.1071 142.281 36.9339
17 1 -71.0057 142.291 37.2616
18 1 -71.9291 142.434 37.4769
19 1 -72.7283 142.753 37.9469
20 1 -73.5863 142.66 38.3254
21 1 -74.3423 142.423 38.7586
22 1 -75.0682 142.497 39.3849
23 1 -75.8247 142.629 39.9518
24 1 -76.6286 142.636 40.3682
25 1 -77.5915 142.685 40.7301
26 1 -78.5117 142.713 40.9537
27 1 -79.4132 142.679 41.0611
28 1 -80.3326 142.438 41.3393
29 1 -81.1703 142.51 41.7584
30 1 -81.9935 142.292 42.2692
31 1 -82.6221 141.82 42.8185
32 1 -83.1545 141.588 43.5756
ITEM: TIMESTEP
3580000
ITEM: NUMBER OF ATOMS
32
ITEM: BOX BOUNDS mm mm mm
-8.3453122322228054e+01 1.6000000000000000e+01
-1.6000000000000000e+01 1.5006551657049681e+02
-1.6000000000000000e+01 3.7864613169112594e+01
ITEM: ATOMS id type x y z
1 1 -60.0679 145.32 27.2762
2 1 -60.0917 145.189 28.2159
3 1 -60.4096 145.248 29.0808
4 1 -60.8421 145.368 29.9041
5 1 -61.5097 145.677 30.4396
6 1 -62.1735 145.98 31.0207
7 1 -62.874 146.015 31.6932
8 1 -63.6498 145.983 32.1947
9 1 -64.4195 145.755 32.6809
10 1 -65.0511 145.524 33.3887
11 1 -65.672 145.494 34.0744
12 1 -66.4218 145.747 34.6301
13 1 -67.1597 146.139 35.0065
14 1 -68.1799 146.251 35.211
15 1 -69.0261 146.703 35.2836
16 1 -69.6888 147.261 35.5679
17 1 -70.436 147.81 35.7423
18 1 -71.1741 148.384 35.9339
19 1 -72.0153 148.924 36.0338
20 1 -72.7994 149.317 36.2812
21 1 -73.7171 149.573 36.6141
22 1 -74.5181 149.773 36.9511
23 1 -75.2671 149.754 37.4877
24 1 -76.2043 149.716 37.7035
25 1 -77.1345 149.692 37.7179
26 1 -78.073 149.839 37.7324
27 1 -78.9602 150.051 37.6359
28 1 -79.8324 150.062 37.3111
29 1 -80.6887 149.919 36.9478
30 1 -81.6245 149.898 36.9394
31 1 -82.4951 149.85 37.2167
32 1 -83.3566 149.618 37.5535
ITEM: TIMESTEP
3590000
ITEM: NUMBER OF ATOMS
32
ITEM: BOX BOUNDS mm mm mm
-7.8254836470470011e+01 1.6000000000000000e+01
-1.6000000000000000e+01 1.5791829882323904e+02
-1.6000000000000000e+01 3.3153978408812129e+01
ITEM: ATOMS id type x y z
1 1 -62.2742 144.402 25.7886
2 1 -62.5828 144.302 26.6381
3 1 -63.0926 144.251 27.4138
4 1 -63.7298 144.099 28.0711
5 1 -64.376 143.911 28.8395
6 1 -65.1312 143.852 29.3953
7 1 -65.9091 144.088 29.8492
8 1 -66.6619 144.315 30.3666
9 1 -67.2005 144.983 30.7077
10 1 -67.8266 145.646 31.0744
11 1 -68.3865 146.206 31.6284
12 1 -68.6045 146.777 32.332
13 1 -68.8761 147.538 32.7792
14 1 -69.2848 148.305 33.2075
15 1 -69.4611 149.205 33.1997
16 1 -70.0036 149.934 32.977
17 1 -70.2676 150.334 32.1776
18 1 -70.5427 150.771 31.3769
19 1 -70.7738 151.155 30.563
20 1 -71.1028 151.602 29.7805
21 1 -71.3637 152.03 29.0288
22 1 -71.8111 152.626 28.4174
23 1 -72.4899 153.027 27.9311
24 1 -73.0715 153.737 27.5848
25 1 -73.5938 154.502 27.4966
26 1 -74.1836 155.216 27.2271
27 1 -74.9662 155.734 26.9436
28 1 -75.6544 156.157 26.5761
29 1 -76.3708 156.6 26.0635
30 1 -77.0552 157.14 25.5203
31 1 -77.53 157.63 24.8848
32 1 -77.8966 158.025 24.1303
ITEM: TIMESTEP
3600000
ITEM: NUMBER OF ATOMS
32
ITEM: BOX BOUNDS mm mm mm
-8.2213993534887166e+01 1.6000000000000000e+01
-1.6000000000000000e+01 1.5198682858569674e+02
-1.6000000000000000e+01 2.7920930024968925e+01
ITEM: ATOMS id type x y z
1 1 -60.358 138.29 24.9129
2 1 -60.839 138.856 25.4989
3 1 -61.3404 139.537 25.8446
4 1 -62.0862 140.079 26.0544
5 1 -62.7485 140.691 26.2251
6 1 -63.4083 141.245 26.6036
7 1 -64.117 141.867 26.7342
8 1 -64.6853 142.637 26.8628
9 1 -65.1187 143.471 26.7236
10 1 -65.4767 144.31 26.5492
11 1 -65.8467 145.216 26.5208
12 1 -66.3681 145.956 26.5753
13 1 -67.0751 146.62 26.6293
14 1 -67.8151 147.201 26.522
15 1 -68.3559 148.003 26.5721
16 1 -68.9918 148.596 26.8923
17 1 -69.7805 149.132 27.0851
18 1 -70.482 149.717 27.2974
19 1 -71.3093 150.119 27.4876
20 1 -72.0739 150.583 27.6164
21 1 -72.8972 151.032 27.5403
22 1 -73.818 151.297 27.5993
23 1 -74.7695 151.558 27.6007
24 1 -75.7059 151.676 27.6378
25 1 -76.6167 151.777 27.5935
26 1 -77.5241 151.894 27.4503
27 1 -78.4807 151.876 27.351
28 1 -79.3633 151.839 26.8992
29 1 -80.2614 151.697 26.6013
30 1 -81.1447 151.734 26.1996
31 1 -81.8609 151.907 25.575
32 1 -82.5264 152.134 24.894
ITEM: TIMESTEP
3610000
ITEM: NUMBER OF ATOMS
32
ITEM: BOX BOUNDS mm mm mm
-7.8129355782888922e+01 1.6000000000000000e+01
-1.6000000000000000e+01 1.5470022116273924e+02
-1.6000000000000000e+01 3.4042338327636074e+01
ITEM: ATOMS id type x y z
1 1 -57.6371 141.204 21.4107
2 1 -58.4916 141.548 21.6581
3 1 -59.2962 141.931 22.0352
4 1 -60.0585 142.17 22.5772
5 1 -60.8638 142.432 22.8914
6 1 -61.6445 142.797 23.1413
7 1 -62.2609 143.395 23.5644
8 1 -63.0391 143.955 23.8269
9 1 -63.9293 144.064 24.1128
10 1 -64.6886 144.497 24.4364
11 1 -65.2802 145.09 24.9129
12 1 -65.9083 145.741 25.2322
13 1 -66.5393 146.392 25.4373
14 1 -67.2134 146.998 25.7119
15 1 -67.8982 147.629 25.8045
16 1 -68.4976 148.362 25.8661
17 1 -69.1512 148.966 26.1599
18 1 -69.8555 149.432 26.5277
19 1 -70.7395 149.664 26.7496
20 1 -71.5833 149.888 27.0956
21 1 -72.4239 149.772 27.5295
22 1 -73.2763 149.782 27.7897
23 1 -73.9909 150.318 28.1958
24 1 -74.567 150.762 28.8226
25 1 -75.2414 151.33 29.2463
26 1 -75.8998 151.787 29.7544
27 1 -76.4342 152.282 30.3495
28 1 -76.9029 152.848 30.928
29 1 -77.1717 153.412 31.6768
30 1 -77.2124 153.901 32.5139
31 1 -77.5237 154.369 33.2699
32 1 -78.0024 154.747 34.0018
ITEM: TIMESTEP
3620000
ITEM: NUMBER OF ATOMS
32
ITEM: BOX BOUNDS mm mm mm
-8.3773584400130574e+01 1.6000000000000000e+01
-1.6000000000000000e+01 1.5849248780728411e+02
-1.6000000000000000e+01 3.5699333183783466e+01
ITEM: ATOMS id type x y z
1 1 -67.2655 141.224 21.6877
2 1 -67.8173 141.708 22.4078
3 1 -68.2489 142.261 23.0544
4 1 -68.9152 142.884 23.4087
5 1 -69.5621 143.424 23.6798
6 1 -70.2416 143.962 23.9793
7 1 -70.8274 144.683 24.2985
8 1 -71.323 145.417 24.54
9 1 -71.86 146.103 24.8672
10 1 -72.3571 146.808 25.2094
11 1 -73.1861 147.124 25.5642
12 1 -73.9203 147.238 26.0899
13 1 -74.7728 147.327 26.5684
14 1 -75.4432 147.826 26.9412
15 1 -76.0908 148.369 27.3907
16 1 -76.8487 148.592 27.9289
17 1 -77.6491 148.795 28.2971
18 1 -78.163 149.505 28.5786
19 1 -78.6573 150.241 28.9336
20 1 -79.1959 150.893 29.3133
21 1 -79.6126 151.719 29.6342
22 1 -79.7712 152.571 30.0367
23 1 -80.0555 153.414 30.4357
24 1 -80.4126 153.872 31.1869
25 1 -80.805 154.615 31.6436
26 1 -81.0929 155.365 32.0917
27 1 -81.4612 156.063 32.6098
28 1 -81.8446 156.808 33.1183
29 1 -82.2701 157.431 33.6654
30 1 -82.7037 157.96 34.289
31 1 -83.3943 158.237 34.8428
32 1 -83.9429 158.586 35.5612
ITEM: TIMESTEP
3630000
ITEM: NUMBER OF ATOMS
32
ITEM: BOX BOUNDS mm mm mm
-8.0433904888292176e+01 1.6000000000000000e+01
-1.6000000000000000e+01 1.5908264469200969e+02
-1.6000000000000000e+01 3.7541096679462768e+01
ITEM: ATOMS id type x y z
1 1 -70.7858 141.735 20.8377
2 1 -71.3243 142.142 21.4841
3 1 -71.8354 142.619 22.1289
4 1 -72.0344 143.15 22.9371
5 1 -72.3185 143.576 23.7284
6 1 -72.5294 143.848 24.6275
7 1 -72.6701 144.301 25.4396
8 1 -72.7223 144.956 26.0718
9 1 -72.9888 145.794 26.4761
10 1 -73.3554 146.543 26.9128
11 1 -73.7583 147.296 27.2844
12 1 -74.112 148.082 27.6943
13 1 -74.4676 148.752 28.253
14 1 -74.5291 149.704 28.2803
15 1 -74.5808 150.656 28.4294
16 1 -74.6169 151.592 28.6205
17 1 -74.7754 152.558 28.6909
18 1 -74.7357 153.513 28.6615
19 1 -74.7605 154.401 29.0227
20 1 -74.9408 155.037 29.6431
21 1 -75.2223 155.466 30.3967
22 1 -75.4886 155.554 31.2985
23 1 -75.8849 155.64 32.1594
24 1 -76.1747 155.604 33.0591
25 1 -76.704 155.684 33.9123
26 1 -77.1914 155.578 34.7431
27 1 -77.8129 155.93 35.3394
28 1 -78.4407 156.452 35.8063
29 1 -79.0784 156.863 36.3859
30 1 -79.419 157.606 36.8279
31 1 -79.9932 158.285 37.2103
32 1 -80.3947 159.054 37.5325
ITEM: TIMESTEP
3640000
ITEM: NUMBER OF ATOMS
32
ITEM: BOX BOUNDS mm mm mm
-9.0075955699113777e+01 1.6000000000000000e+01
-1.6000000000000000e+01 1.5534582289894675e+02
-1.6000000000000000e+01 3.7005492997945495e+01
ITEM: ATOMS id type x y z
1 1 -76.6564 139.781 20.6087
2 1 -76.5641 140.543 21.2108
3 1 -76.616 141.192 21.8663
4 1 -76.6985 141.802 22.6082
5 1 -76.6031 142.198 23.4687
6 1 -76.6754 142.628 24.3086
7 1 -76.8193 143.055 25.0954
8 1 -77.0949 143.578 25.836
9 1 -77.3593 143.93 26.6946
10 1 -77.758 143.918 27.5503
11 1 -78.2491 144.239 28.2493
12 1 -78.4895 144.691 29.025
13 1 -78.8651 145.033 29.785
14 1 -79.3683 145.445 30.4197
15 1 -79.9394 145.875 31.0209
16 1 -80.5787 146.391 31.4702
17 1 -81.1407 146.903 32.0771
18 1 -81.8421 147.423 32.4817
19 1 -82.4234 148.068 32.8877
20 1 -82.7 148.718 33.5036
21 1 -83.0905 149.319 34.1877
22 1 -83.7232 149.723 34.7561
23 1 -84.398 150.093 35.2917
24 1 -85.115 150.283 35.9075
25 1 -85.8403 150.547 36.5401
26 1 -86.62 150.944 36.9353
27 1 -87.1851 151.676 37.0383
28 1 -87.7412 152.467 37.1583
29 1 -88.2641 153.328 37.2115
30 1 -88.753 154.145 37.1417
31 1 -89.441 154.757 37.008
32 1 -89.8084 155.62 37.0288
ITEM: TIMESTEP
3650000
ITEM: NUMBER OF ATOMS
32
ITEM: BOX BOUNDS mm mm mm
-9.0561689613274879e+01 1.6000000000000000e+01
-1.6000000000000000e+01 1.5419717158139491e+02
-1.6000000000000000e+01 3.9871089322999545e+01
ITEM: ATOMS id type x y z
1 1 -74.3243 147.971 30.2977
2 1 -74.88 147.326 29.9645
3 1 -75.5579 146.678 29.6469
4 1 -76.3491 146.13 29.5263
5 1 -77.171 145.647 29.8053
6 1 -78.0794 145.314 29.8719
7 1 -79.0141 145.27 29.9332
8 1 -79.9689 145.234 30.0573
9 1 -80.8564 144.988 30.2269
10 1 -81.7296 144.901 30.5221
11 1 -82.617 145.026 30.8404
12 1 -83.5074 145.291 30.9562
13 1 -84.4269 145.597 31.0638
14 1 -85.3566 145.587 31.0841
15 1 -86.2642 145.867 31.0057
16 1 -87.1958 145.99 31.025
17 1 -88.1493 146.045 31.2111
18 1 -88.9178 146.007 31.6746
19 1 -89.439 146.168 32.4641
20 1 -89.8423 146.551 33.2784
21 1 -90.262 146.962 34.0118
22 1 -90.6557 147.281 34.8221
23 1 -90.9025 147.865 35.5701
24 1 -90.9276 148.562 36.2058
25 1 -90.6886 149.421 36.5014
26 1 -90.4014 150.274 36.7602
27 1 -90.1818 150.946 37.3569
28 1 -89.9747 151.701 37.8514
29 1 -89.6905 152.455 38.3111
30 1 -88.9766 153.025 38.7441
31 1 -88.4231 153.754 39.1737
32 1 -88.0603 154.312 39.8355
ITEM: TIMESTEP
3660000
ITEM: NUMBER OF ATOMS
32
ITEM: BOX BOUNDS mm mm mm
-9.8116842437940065e+01 1.6000000000000000e+01
-1.6000000000000000e+01 1.5217238867366930e+02
-1.6000000000000000e+01 3.6379858841825666e+01
ITEM: ATOMS id type x y z
1 1 -75.2419 148.151 23.5422
2 1 -75.9667 147.603 23.4023
3 1 -76.6504 146.994 23.6224
4 1 -77.4268 146.479 23.9223
5 1 -78.2661 146.271 24.3389
6 1 -78.8475 145.992 25.0868
7 1 -79.3585 145.655 25.8205
8 1 -80.0548 145.58 26.5246
9 1 -80.5758 145.758 27.3189
10 1 -81.1622 145.861 28.0452
11 1 -81.7686 146.187 28.6569
12 1 -82.5548 146.567 28.9904
13 1 -83.1983 147.222 28.9978
14 1 -83.9217 147.787 29.1021
15 1 -84.612 148.427 29.5206
16 1 -85.2173 149.114 29.7859
17 1 -85.9128 149.713 30.07
18 1 -86.6275 150.203 30.3701
19 1 -87.3943 150.499 30.8056
20 1 -88.0681 150.991 31.3046
21 1 -88.7897 151.336 31.7536
22 1 -89.5561 151.542 32.2717
23 1 -90.073 151.775 32.9981
24 1 -90.8702 151.924 33.6319
25 1 -91.7035 151.846 34.0542
26 1 -92.547 151.878 34.4757
27 1 -93.4423 151.928 34.8525
28 1 -94.338 151.869 35.1463
29 1 -95.242 151.936 35.3612
30 1 -96.1157 151.984 35.6278
31 1 -96.9241 152.208 36.0641
32 1 -97.7158 152.401 36.4857
ITEM: TIMESTEP
3670000
ITEM: NUMBER OF ATOMS
32
ITEM: BOX BOUNDS mm mm mm
-9.9193248809829058e+01 1.6000000000000000e+01
-1.6000000000000000e+01 1.5308583857095923e+02
-1.6000000000000000e+01 3.2688760327780976e+01
ITEM: ATOMS id type x y z
1 1 -80.6834 136.938 32.1138
2 1 -81.084 137.805 32.0165
3 1 -81.3154 138.68 31.866
4 1 -81.5244 139.531 31.7203
5 1 -81.73 140.486 31.7309
6 1 -81.8725 141.372 31.4741
7 1 -82.3271 141.993 30.9268
8 1 -82.5612 142.45 30.1303
9 1 -82.8953 142.884 29.3538
10 1 -83.462 143.463 28.7681
11 1 -84.1886 143.996 28.4717
12 1 -84.8655 144.398 28.0013
13 1 -85.5531 144.952 27.6567
14 1 -86.102 145.681 27.485
15 1 -86.7079 146.359 27.1283
16 1 -87.3172 147.083 27.0035
17 1 -87.8943 147.799 27.1753
18 1 -88.6799 148.346 27.3164
19 1 -89.3998 148.83 27.7213
20 1 -90.0955 149.319 28.1385
21 1 -90.7866 149.847 28.4269
22 1 -91.5291 150.431 28.6909
23 1 -92.2622 150.864 29.0032
24 1 -93.0591 151.277 29.2949
25 1 -93.7808 151.852 29.5489
26 1 -94.4824 152.429 29.6555
27 1 -95.199 152.887 30.0773
28 1 -95.9822 153.165 30.5063
29 1 -96.7812 153.317 30.9954
30 1 -97.6018 153.163 31.4174
31 1 -98.3173 153.002 32.0805
32 1 -98.8502 152.754 32.8367
ITEM: TIMESTEP
3680000
ITEM: NUMBER OF ATOMS
32
ITEM: BOX BOUNDS mm mm mm
-9.2523816502559001e+01 1.6000000000000000e+01
-1.6000000000000000e+01 1.5332144353320913e+02
-1.6000000000000000e+01 3.3341015251945365e+01
ITEM: ATOMS id type x y z
1 1 -84.4138 134.161 33.3565
2 1 -84.57 134.334 32.4137
3 1 -84.7071 134.535 31.4991
4 1 -85.1692 134.715 30.6973
5 1 -85.7213 135.098 30.1234
6 1 -86.3843 135.558 29.6303
7 1 -87.027 136.154 29.364
8 1 -87.6204 136.774 28.947
9 1 -88.2272 137.355 28.455
10 1 -88.7224 137.752 27.7839
11 1 -89.4914 138.166 27.2912
12 1 -90.265 138.209 26.7464
13 1 -90.8773 138.421 26.0361
14 1 -91.5147 138.646 25.3575
15 1 -91.9195 139.197 24.7634
16 1 -92.1074 140.007 24.2624
17 1 -92.2585 140.769 23.6939
18 1 -92.2843 141.64 23.3601
19 1 -92.1809 142.398 22.8364
20 1 -92.2206 143.297 22.5332
21 1 -92.2746 144.161 22.1667
22 1 -92.2775 145.092 22.337
23 1 -92.159 146.008 22.5137
24 1 -91.9494 146.894 22.7412
25 1 -91.7748 147.842 22.7782
26 1 -91.8349 148.755 22.7479
27 1 -91.8454 149.598 22.2574
28 1 -91.7843 150.309 21.7112
29 1 -91.6103 150.961 21.0706
30 1 -91.3396 151.762 20.6238
31 1 -91.3615 152.548 20.1063
32 1 -91.217 153.256 19.538
ITEM: TIMESTEP
3690000
ITEM: NUMBER OF ATOMS
32
ITEM: BOX BOUNDS mm mm mm
-9.4348682962669926e+01 1.6000000000000000e+01
-1.6000000000000000e+01 1.4435588024324781e+02
-1.6000000000000000e+01 3.5249293725054301e+01
ITEM: ATOMS id type x y z
1 1 -88.1006 128.855 34.6311
2 1 -88.4162 129.768 34.581
3 1 -88.6453 130.685 34.5807
4 1 -88.9094 131.634 34.3805
5 1 -89.2036 132.491 34.2918
6 1 -89.4814 133.374 34.1091
7 1 -89.3523 134.324 34.0594