ITEM: TIMESTEP
1850000
ITEM: NUMBER OF ATOMS
32
ITEM: BOX BOUNDS mm mm mm
-1.8408511094309805e+01 1.6000000000000000e+01
-1.6000000000000000e+01 4.3387947924594997e+01
-1.6000000000000000e+01 1.6000000000000000e+01
ITEM: ATOMS id type x y z
1 1 -18.4053 43.3847 7.62139
2 1 -17.9349 42.5789 7.6441
3 1 -17.4721 41.7126 7.65767
4 1 -17.0649 40.8744 7.59094
5 1 -16.8791 39.95 7.72145
6 1 -16.9625 39.0126 7.58926
7 1 -17.0343 38.1377 7.34389
8 1 -17.0344 37.3679 6.85892
9 1 -17.1637 36.4534 6.62126
10 1 -17.2369 35.5615 6.53835
11 1 -17.3473 34.6439 6.2716
12 1 -17.238 33.7747 6.04316
13 1 -16.7881 32.97 5.66025
14 1 -16.3483 32.261 5.19584
15 1 -15.7945 31.6942 4.75779
16 1 -15.5205 31.0397 4.12352
17 1 -15.4059 30.3527 3.50319
18 1 -14.991 29.5129 3.2727
19 1 -15.1281 28.6738 2.95587
20 1 -15.2122 27.6949 2.70436
21 1 -15.4558 26.8562 2.43951
22 1 -15.5826 26.0666 1.9352
23 1 -15.5524 25.2597 1.40847
24 1 -15.8149 24.4091 0.882795
25 1 -15.9808 23.5776 0.534614
26 1 -16.0884 22.6917 0.384438
27 1 -15.9541 21.7909 0.182777
28 1 -15.713 20.984 -0.23318
29 1 -15.5186 20.131 -0.666401
30 1 -15.0908 19.2811 -0.936186
31 1 -14.7479 18.4748 -1.13772
32 1 -14.5623 17.6431 -1.62303
ITEM: TIMESTEP
1860000
ITEM: NUMBER OF ATOMS
32
ITEM: BOX BOUNDS mm mm mm
-1.6000000000000000e+01 1.6000000000000000e+01
-1.6000000000000000e+01 3.8414732245534587e+01
-1.6000000000000000e+01 1.6000000000000000e+01
ITEM: ATOMS id type x y z
1 1 -12.8201 38.0659 5.7099
2 1 -12.3329 37.2926 5.52165
3 1 -11.8852 36.4813 5.17518
4 1 -11.742 35.52 5.20658
5 1 -11.4919 34.5959 5.12508
6 1 -11.397 33.7226 5.50393
7 1 -11.3566 32.8578 5.84582
8 1 -11.6417 31.9799 6.1747
9 1 -11.7126 31.1274 6.40229
10 1 -11.6262 30.1942 6.56015
11 1 -11.5349 29.2479 6.55598
12 1 -11.4342 28.2906 6.72857
13 1 -11.3117 27.3989 6.88542
14 1 -11.2284 26.4901 6.88352
15 1 -11.3576 25.5651 6.78002
16 1 -11.4662 24.7167 6.32473
17 1 -11.4932 23.8894 5.85173
18 1 -11.5292 23.0117 5.50525
19 1 -11.6462 22.1047 5.29194
20 1 -11.7334 21.2248 5.09478
21 1 -12.02 20.3157 4.90591
22 1 -12.2066 19.414 4.72521
23 1 -12.3711 18.5316 4.72228
24 1 -12.6296 17.5579 4.57051
25 1 -12.7334 16.7242 4.21379
26 1 -12.8909 15.9408 3.69912
27 1 -12.8504 15.2394 3.13096
28 1 -12.6151 14.65 2.46874
29 1 -12.5722 14.2066 1.69238
30 1 -12.3886 13.6961 0.846732
31 1 -12.0439 13.6974 -0.0872546
32 1 -11.5604 13.8348 -0.844327
ITEM: TIMESTEP
1870000
ITEM: NUMBER OF ATOMS
32
ITEM: BOX BOUNDS mm mm mm
-1.6000000000000000e+01 1.6000000000000000e+01
-1.6000000000000000e+01 3.6202584097284500e+01
-1.6000000000000000e+01 1.6000000000000000e+01
ITEM: ATOMS id type x y z
1 1 -8.84404 36.2286 5.02213
2 1 -9.17904 35.5903 5.68238
3 1 -9.48161 35.0366 6.3847
4 1 -9.65715 34.3136 6.95272
5 1 -9.90135 33.7541 7.70119
6 1 -10.2808 33.062 8.27092
7 1 -10.6438 32.2896 8.63174
8 1 -10.795 31.4257 8.98548
9 1 -10.7036 30.5041 8.98755
10 1 -10.6863 29.5446 9.14774
11 1 -10.8388 28.6594 9.14355
12 1 -11.2313 27.824 9.09032
13 1 -11.6526 27.0742 8.80643
14 1 -11.9579 26.2639 8.41165
15 1 -12.3726 25.7008 7.84061
16 1 -12.7758 25.4484 6.98483
17 1 -13.0282 25.2878 6.12597
18 1 -13.2232 24.9599 5.29098
19 1 -13.5712 24.5012 4.58653
20 1 -13.9798 24.0639 3.83767
21 1 -14.391 23.5045 3.22955
22 1 -14.8904 22.9063 2.81297
23 1 -15.2121 22.237 2.18326
24 1 -15.2322 21.527 1.62497
25 1 -15.2473 20.9249 0.874243
26 1 -15.2173 20.2958 0.223864
27 1 -14.8858 19.7394 -0.344953
28 1 -14.7221 19.0235 -0.973359
29 1 -14.4144 18.3394 -1.55172
30 1 -14.1228 17.5211 -2.07715
31 1 -13.9991 16.6929 -2.60826
32 1 -13.8606 15.9713 -3.15972
ITEM: TIMESTEP
1880000
ITEM: NUMBER OF ATOMS
32
ITEM: BOX BOUNDS mm mm mm
-1.7404196605765062e+01 1.6000000000000000e+01
-1.6000000000000000e+01 3.3043324849727469e+01
-1.6000000000000000e+01 1.6000000000000000e+01
ITEM: ATOMS id type x y z
1 1 -5.11968 32.7718 14.0687
2 1 -5.80892 32.6215 13.406
3 1 -6.35163 32.228 12.7124
4 1 -6.81261 31.8836 12.0285
5 1 -7.2536 31.4134 11.3266
6 1 -7.73856 31.021 10.6065
7 1 -8.39451 30.5822 10.089
8 1 -8.82909 29.9635 9.5251
9 1 -9.18211 29.2453 8.94133
10 1 -9.44832 28.7705 8.15918
11 1 -9.70109 28.243 7.34456
12 1 -9.99957 27.583 6.75402
13 1 -10.5791 27.0209 6.28553
14 1 -11.2984 26.6046 5.77687
15 1 -11.9334 25.9327 5.54411
16 1 -12.4464 25.1094 5.43012
17 1 -12.995 24.4191 5.18725
18 1 -13.49 23.696 4.84216
19 1 -13.7623 22.8378 4.53545
20 1 -13.9265 22.0987 4.02332
21 1 -14.1292 21.3184 3.60055
22 1 -13.9204 20.3985 3.56147
23 1 -13.9934 19.497 3.33567
24 1 -14.1639 18.5909 3.11665
25 1 -14.4687 17.6906 2.95391
26 1 -14.724 16.8102 2.97504
27 1 -15.3656 16.0831 2.86754
28 1 -15.9085 15.3182 2.86917
29 1 -16.4232 14.5335 2.75392
30 1 -16.8857 13.722 2.52702
31 1 -17.3138 12.9172 2.56992
32 1 -17.643 12.0604 2.33819
ITEM: TIMESTEP
1890000
ITEM: NUMBER OF ATOMS
32
ITEM: BOX BOUNDS mm mm mm
-2.1178604837145052e+01 1.6000000000000000e+01
-1.6000000000000000e+01 2.8133907682886864e+01
-1.6000000000000000e+01 1.6423212456497748e+01
ITEM: ATOMS id type x y z
1 1 -4.01261 28.0061 16.4319
2 1 -4.62036 28.0849 15.7413
3 1 -5.09218 28.2102 14.9013
4 1 -5.79519 28.14 14.2408
5 1 -6.4536 27.9021 13.6213
6 1 -7.08462 27.558 12.9547
7 1 -7.6917 27.4437 12.2424
8 1 -8.38112 27.0754 11.7417
9 1 -9.1297 26.6012 11.3911
10 1 -9.94335 26.1963 11.1474
11 1 -10.6789 25.6526 10.7946
12 1 -11.4801 25.2005 10.5429
13 1 -12.2002 24.779 10.1179
14 1 -13.0849 24.4795 9.90844
15 1 -13.8835 23.9112 10.039
16 1 -14.7388 23.5066 10.0148
17 1 -15.4598 23.0657 9.58118
18 1 -16.0462 22.7106 8.91728
19 1 -16.6615 22.4349 8.22932
20 1 -17.305 22.0708 7.68946
21 1 -17.6767 21.3927 7.163
22 1 -17.9475 20.6081 6.65822
23 1 -17.9826 19.9068 6.08115
24 1 -18.2296 19.2099 5.54952
25 1 -18.6219 18.4739 4.99731
26 1 -19.125 17.9527 4.36116
27 1 -19.4268 17.4402 3.6226
28 1 -19.7112 16.9517 2.81747
29 1 -19.993 16.4145 2.0736
30 1 -20.3979 15.8863 1.31156
31 1 -20.7903 15.2538 0.731045
32 1 -21.2662 14.6876 0.176371
ITEM: TIMESTEP
1900000
ITEM: NUMBER OF ATOMS
32
ITEM: BOX BOUNDS mm mm mm
-2.2748469066863006e+01 1.6000000000000000e+01
-1.6000000000000000e+01 3.0064171843711712e+01
-1.6000000000000000e+01 1.7154450862109261e+01
ITEM: ATOMS id type x y z
1 1 -3.802 30.0316 17.1832
2 1 -4.36057 29.8138 16.4162
3 1 -4.80543 29.683 15.5996
4 1 -5.39982 29.4853 14.7859
5 1 -6.07014 29.4036 14.1203
6 1 -6.64935 29.0603 13.5047
7 1 -7.12201 28.5453 12.8398
8 1 -7.68799 27.8848 12.3993
9 1 -8.14323 27.0665 12.1234
10 1 -8.79176 26.4652 11.8687
11 1 -9.36486 25.8612 11.4558
12 1 -9.87914 25.064 11.1881
13 1 -10.2204 24.2404 10.9532
14 1 -10.6065 23.4604 10.5755
15 1 -10.9589 22.7736 10.0421
16 1 -11.0293 22.1849 9.33194
17 1 -11.2589 21.6603 8.56992
18 1 -11.5169 21.1204 7.87281
19 1 -11.9798 20.5425 7.3004
20 1 -12.6023 19.9192 6.96992
21 1 -13.3515 19.523 6.50689
22 1 -14.1139 19.1896 6.01924
23 1 -15.0157 19.2105 5.79869
24 1 -15.9807 19.2115 5.71708
25 1 -16.888 19.2245 5.78391
26 1 -17.7344 19.297 6.27103
27 1 -18.534 19.4014 6.63862
28 1 -19.3035 19.5652 7.16113
29 1 -20.1882 19.9597 7.3486
30 1 -21.1039 20.0617 7.43571
31 1 -21.9796 19.6968 7.34184
32 1 -22.7486 19.1435 7.05437
ITEM: TIMESTEP
1910000
ITEM: NUMBER OF ATOMS
32
ITEM: BOX BOUNDS mm mm mm
-2.8022009594829232e+01 1.6000000000000000e+01
-1.6000000000000000e+01 2.6054345770364488e+01
-1.6000000000000000e+01 1.6000000000000000e+01
ITEM: ATOMS id type x y z
1 1 -4.29216 25.6997 10.8091
2 1 -5.02512 25.3954 11.3467
3 1 -5.65306 24.8829 11.8468
4 1 -6.23821 24.2154 12.2309
5 1 -6.89829 23.5172 12.3915
6 1 -7.76932 23.0606 12.397
7 1 -8.55224 22.5974 12.2132
8 1 -9.26065 22.237 11.6954
9 1 -9.98222 22.1897 11.1102
10 1 -10.7303 22.1577 10.5889
11 1 -11.4959 21.8951 10.0295
12 1 -12.1572 21.3367 9.68021
13 1 -12.9509 20.7966 9.52954
14 1 -13.5632 20.1783 9.8522
15 1 -14.1341 19.5374 10.2614
16 1 -14.9443 19.0232 10.5131
17 1 -15.7066 18.5311 10.8651
18 1 -16.4153 17.9093 11.1167
19 1 -17.0809 17.2708 11.0432
20 1 -17.8304 16.7745 10.8151
21 1 -18.6223 16.2674 10.7671
22 1 -19.3715 15.7001 10.6311
23 1 -20.1563 15.2498 10.5792
24 1 -21.0292 14.9699 10.5177
25 1 -21.9887 14.879 10.6984
26 1 -22.8892 14.5573 10.6157
27 1 -23.7019 14.1969 10.3895
28 1 -24.5573 13.7321 10.3589
29 1 -25.4272 13.3887 10.3732
30 1 -26.3218 13.202 10.4705
31 1 -27.2013 13.448 10.5849
32 1 -28.0525 13.7003 10.8164
ITEM: TIMESTEP
1920000
ITEM: NUMBER OF ATOMS
32
ITEM: BOX BOUNDS mm mm mm
-3.2172227565402729e+01 1.6000000000000000e+01
-1.6000000000000000e+01 2.6529930418111576e+01
-1.6000000000000000e+01 2.2809630981753678e+01
ITEM: ATOMS id type x y z
1 1 -12.2252 26.5539 22.8526
2 1 -12.5969 26.4178 22.0059
3 1 -12.9139 26.3126 21.1442
4 1 -13.1515 26.2188 20.2335
5 1 -13.3968 25.968 19.306
6 1 -13.5785 25.4209 18.5392
7 1 -13.8449 24.7379 17.9512
8 1 -13.9973 24.062 17.3833
9 1 -14.303 23.4033 16.7298
10 1 -14.6575 22.742 16.1465
11 1 -15.1005 22.1143 15.5908
12 1 -15.6451 21.5782 15.0943
13 1 -16.4005 21.0797 14.8242
14 1 -17.2597 20.8559 14.4959
15 1 -17.9399 20.6774 13.8187
16 1 -18.6949 20.6262 13.2471
17 1 -19.5785 20.2525 13.099
18 1 -20.5654 20.0192 12.9423
19 1 -21.545 20.0278 12.8144
20 1 -22.4392 19.8252 12.9303
21 1 -23.3312 19.8157 12.5777
22 1 -24.1267 19.6458 12.1228
23 1 -24.9283 19.5155 11.6629
24 1 -25.739 19.1086 11.34
25 1 -26.5648 18.6317 10.9887
26 1 -27.2356 18.2359 10.4539
27 1 -27.9411 17.8335 9.91489
28 1 -28.6517 17.4261 9.57997
29 1 -29.5722 17.3476 9.20409
30 1 -30.4999 17.3218 8.90975
31 1 -31.3482 17.2149 8.49488
32 1 -32.2003 16.9588 7.98505
ITEM: TIMESTEP
1930000
ITEM: NUMBER OF ATOMS
32
ITEM: BOX BOUNDS mm mm mm
-2.9144305626391397e+01 1.6000000000000000e+01
-1.6000000000000000e+01 2.8336065728848897e+01
-1.6000000000000000e+01 2.8506505351870295e+01
ITEM: ATOMS id type x y z
1 1 -18.0026 28.391 27.9427
2 1 -18.6956 27.8545 27.6654
3 1 -19.2311 27.3006 27.2059
4 1 -19.7695 26.7491 26.6609
5 1 -20.1863 26.2381 26.035
6 1 -20.6218 25.7418 25.43
7 1 -20.8768 25.4123 24.5955
8 1 -21.3194 25.2268 23.741
9 1 -21.7463 24.8173 22.9988
10 1 -22.064 24.714 22.0813
11 1 -22.1582 24.5562 21.1349
12 1 -22.1285 24.3973 20.2398
13 1 -22.0613 24.3397 19.3146
14 1 -22.0131 24.1298 18.4126
15 1 -21.9187 23.9545 17.5139
16 1 -21.991 24.1604 16.5383
17 1 -22.2726 24.3879 15.6661
18 1 -22.7948 24.6204 14.8909
19 1 -23.12 24.5115 14.0053
20 1 -23.5446 24.5169 13.1711
21 1 -23.9328 24.4011 12.3246
22 1 -24.4224 24.2263 11.5819
23 1 -24.9555 23.7983 10.9104
24 1 -25.1474 23.358 10.1209
25 1 -25.365 22.5838 9.59433
26 1 -25.6487 21.8093 9.2039
27 1 -26.2531 21.222 8.72767
28 1 -26.6942 20.5984 8.24756
29 1 -27.0412 20.0191 7.51258
30 1 -27.5598 19.4745 6.87947
31 1 -28.2123 19.1545 6.27525
32 1 -28.832 18.7334 5.68833
ITEM: TIMESTEP
1940000
ITEM: NUMBER OF ATOMS
32
ITEM: BOX BOUNDS mm mm mm
-2.8353464540285621e+01 1.6000000000000000e+01
-1.6000000000000000e+01 2.6526272401039805e+01
-1.6000000000000000e+01 2.8378381038503758e+01
ITEM: ATOMS id type x y z
1 1 -18.982 26.3145 28.3006
2 1 -19.5639 26.3222 27.566
3 1 -20.29 26.3663 26.9805
4 1 -20.9522 26.2581 26.3479
5 1 -21.6053 26.0014 25.7396
6 1 -22.2795 25.9922 25.0855
7 1 -22.8927 26.2717 24.4341
8 1 -23.5136 26.4427 23.7164
9 1 -24.1458 26.4768 23.0106
10 1 -24.6032 26.4539 22.1471
11 1 -25.1436 26.0845 21.4655
12 1 -25.4672 25.5475 20.7375
13 1 -25.512 25.1045 19.8678
14 1 -25.7433 24.7316 18.993
15 1 -25.8626 24.1102 18.2428
16 1 -25.8008 23.5217 17.5479
17 1 -25.9656 23.1609 16.6853
18 1 -26.4182 23.2073 15.9052
19 1 -26.5234 23.2784 14.939
20 1 -26.7355 23.3649 14.005
21 1 -26.9284 23.3957 13.0584
22 1 -26.9578 23.2995 12.1476
23 1 -26.9604 23.1839 11.1934
24 1 -26.9621 23.4495 10.2911
25 1 -27.0937 23.8065 9.42416
26 1 -27.2744 24.3605 8.66778
27 1 -27.4568 24.9411 7.9175
28 1 -27.4414 25.324 7.07643
29 1 -27.5129 25.5937 6.15013
30 1 -27.6052 25.8043 5.26761
31 1 -27.9803 25.8788 4.42124
32 1 -28.2953 25.9742 3.53846
ITEM: TIMESTEP
1950000
ITEM: NUMBER OF ATOMS
32
ITEM: BOX BOUNDS mm mm mm
-2.6485359250238492e+01 1.6000000000000000e+01
-1.6000000000000000e+01 3.5831281934062559e+01
-1.6000000000000000e+01 2.2115666995321160e+01
ITEM: ATOMS id type x y z
1 1 -15.9146 35.9686 21.9368
2 1 -15.7826 35.0556 21.9616
3 1 -15.8838 34.1038 22.1386
4 1 -15.9451 33.1753 22.2738
5 1 -16.0758 32.1999 22.1439
6 1 -16.144 31.2999 21.8495
7 1 -16.0571 30.5559 21.2416
8 1 -16.2072 29.7581 20.7405
9 1 -16.4367 29.0271 20.0986
10 1 -16.7204 28.2647 19.6489
11 1 -17.0787 27.4664 19.2362
12 1 -17.5441 26.9488 18.6176
13 1 -18.1801 26.4374 18.1349
14 1 -18.9265 26.0342 17.7784
15 1 -19.7731 25.6845 17.4244
16 1 -20.4287 25.3176 16.812
17 1 -20.9736 24.9611 16.1343
18 1 -21.7492 24.7324 15.6563
19 1 -22.6155 24.5785 15.3103
20 1 -23.4082 24.6086 14.8784
21 1 -24.2578 24.677 14.3644
22 1 -24.9883 24.7822 13.8664
23 1 -25.7116 24.7109 13.2288
24 1 -25.9148 24.4501 12.3465
25 1 -26.1589 24.0681 11.5222
26 1 -26.393 23.7996 10.6094
27 1 -26.5483 23.7947 9.66008
28 1 -26.4235 23.8916 8.75235
29 1 -26.3294 23.815 7.83866
30 1 -26.1022 23.5814 6.94413
31 1 -26.2436 23.2094 6.11275
32 1 -26.098 22.8785 5.22859
ITEM: TIMESTEP
1960000
ITEM: NUMBER OF ATOMS
32
ITEM: BOX BOUNDS mm mm mm
-3.5399689340257609e+01 1.6000000000000000e+01
-1.6000000000000000e+01 2.9499911613427187e+01
-1.6000000000000000e+01 1.9707355462041626e+01
ITEM: ATOMS id type x y z
1 1 -14.6757 28.249 19.7928
2 1 -15.4213 28.3933 19.209
3 1 -16.2188 28.6886 18.7662
4 1 -17.1472 28.9505 18.4973
5 1 -18.087 29.1267 18.4159
6 1 -18.9364 29.0771 17.977
7 1 -19.7138 29.2592 17.539
8 1 -20.4159 29.4757 16.9489
9 1 -21.2445 29.5311 16.4443
10 1 -22.0601 29.2932 16.0352
11 1 -22.9178 29.0454 15.694
12 1 -23.5734 28.5711 15.2075
13 1 -24.2997 28.1186 14.8356
14 1 -25.0735 27.6734 14.5266
15 1 -25.8481 27.1723 14.4764
16 1 -26.5321 26.5875 14.2767
17 1 -27.3633 26.1941 13.9872
18 1 -28.2664 26.0665 14.0018
19 1 -29.1563 26.1917 14.1551
20 1 -30.0587 26.2749 14.0327
21 1 -30.8594 26.4625 13.4964
22 1 -31.5234 26.5873 12.8525
23 1 -32.1196 26.4311 12.1614
24 1 -32.6912 26.3108 11.4329
25 1 -33.2288 26.0874 10.6782
26 1 -33.8926 25.8428 10.0398
27 1 -34.1567 25.2812 9.35226
28 1 -34.0905 24.6929 8.64476
29 1 -34.4305 24.0927 7.9374
30 1 -34.9001 23.7794 7.20267
31 1 -35.1725 23.3222 6.39633
32 1 -35.5856 22.8496 5.72206
ITEM: TIMESTEP
1970000
ITEM: NUMBER OF ATOMS
32
ITEM: BOX BOUNDS mm mm mm
-3.6637576716350843e+01 1.6000000000000000e+01
-1.6000000000000000e+01 3.2192901048758692e+01
-1.6000000000000000e+01 1.9799850812961061e+01
ITEM: ATOMS id type x y z
1 1 -16.3553 32.0687 19.526
2 1 -17.1531 31.5174 19.4703
3 1 -17.9745 30.9998 19.3722
4 1 -18.5542 30.4993 18.8216
5 1 -18.879 29.9585 18.1444
6 1 -19.2365 29.3504 17.5308
7 1 -19.7643 29.0971 16.781
8 1 -20.3669 28.9636 16.12
9 1 -20.8635 28.6808 15.3635
10 1 -21.3611 28.3174 14.6668
11 1 -22.0227 28.2037 13.9745
12 1 -22.6927 27.9648 13.2734
13 1 -23.3568 27.8271 12.5449
14 1 -24.0132 27.8852 11.9312
15 1 -24.6476 27.8193 11.2719
16 1 -25.4303 27.7555 10.6898
17 1 -26.2576 27.4837 10.3685
18 1 -26.9597 27.0354 9.87545
19 1 -27.5434 26.5843 9.26259
20 1 -28.1198 25.936 8.90726
21 1 -28.743 25.2752 8.66051
22 1 -29.4534 24.6113 8.39279
23 1 -30.2632 24.2616 8.0038
24 1 -31.0592 24.0298 7.64335
25 1 -31.9466 23.9352 7.30918
26 1 -32.7477 23.9533 6.82518
27 1 -33.3118 23.7345 6.13432
28 1 -33.9113 23.5828 5.42902
29 1 -34.5693 23.1664 4.92917
30 1 -35.3182 22.5801 4.57967
31 1 -36.0359 21.9451 4.4575
32 1 -36.698 21.2606 4.37423
ITEM: TIMESTEP
1980000
ITEM: NUMBER OF ATOMS
32
ITEM: BOX BOUNDS mm mm mm
-3.4239265878825833e+01 1.6000000000000000e+01
-1.6000000000000000e+01 2.6472692934773590e+01
-1.6000000000000000e+01 2.2373004090806216e+01
ITEM: ATOMS id type x y z
1 1 -11.9274 25.4908 22.0891
2 1 -12.8234 25.401 21.8342
3 1 -13.6165 25.6588 21.3414
4 1 -14.2772 26.0503 20.904
5 1 -14.964 26.261 20.3041
6 1 -15.6815 26.492 19.6846
7 1 -16.39 26.7309 19.1112
8 1 -17.2618 26.6758 18.8182
9 1 -17.9839 26.139 18.4443
10 1 -18.8846 25.9492 18.3028
11 1 -19.8732 25.8958 18.1359
12 1 -20.7547 25.742 17.9861
13 1 -21.694 25.7568 17.7501
14 1 -22.5556 25.7393 17.4217
15 1 -23.4013 25.5653 17.1588
16 1 -24.2881 25.5402 16.9763
17 1 -25.162 25.6451 16.6209
18 1 -25.9826 25.7258 16.2676
19 1 -26.7128 25.6731 15.7854
20 1 -27.4283 25.6303 15.2212
21 1 -28.2105 25.4782 14.6692
22 1 -28.9001 25.2856 13.9974
23 1 -29.5217 24.9026 13.3617
24 1 -30.1317 24.6841 12.6543
25 1 -30.7904 24.3608 12.0227
26 1 -31.4874 24.2077 11.3883
27 1 -32.0081 24.2552 10.5759
28 1 -32.5476 24.1539 9.85707
29 1 -32.9559 24.2072 8.97859
30 1 -33.2631 23.9708 8.1343
31 1 -33.4942 23.5532 7.31245
32 1 -33.5297 23.3063 6.43014
ITEM: TIMESTEP
1990000
ITEM: NUMBER OF ATOMS
32
ITEM: BOX BOUNDS mm mm mm
-3.8908711123534211e+01 1.6000000000000000e+01
-1.6000000000000000e+01 2.6892506183454092e+01
-1.6000000000000000e+01 1.6960127801986101e+01
ITEM: ATOMS id type x y z
1 1 -14.1221 27.4317 7.56224
2 1 -14.8619 26.973 8.00277
3 1 -15.6021 26.5821 8.46304
4 1 -16.379 26.3546 9.02512
5 1 -17.2048 26.0953 9.43304
6 1 -18.1061 26.0791 9.7253
7 1 -19.0313 26.1516 9.87996
8 1 -19.8147 26.5279 10.2868
9 1 -20.6257 26.693 10.7513
10 1 -21.3194 26.7103 11.3352
11 1 -22.1097 26.7487 11.8508
12 1 -22.8713 26.7719 12.3105
13 1 -23.612 26.5888 12.8822
14 1 -24.2636 26.3551 13.545
15 1 -24.8726 26.0152 14.1692
16 1 -25.6199 25.7523 14.5862
17 1 -26.2743 25.5631 15.2009
18 1 -27.0534 25.2613 15.6677
19 1 -27.8673 24.9775 16.0585
20 1 -28.772 24.7634 16.2723
21 1 -29.5697 24.3091 16.4219
22 1 -30.5722 24.1683 16.7109
23 1 -31.481 23.964 16.9372
24 1 -32.4005 23.9313 16.7815
25 1 -33.2381 23.8778 16.3183
26 1 -34.087 23.9639 15.9147
27 1 -34.8163 24.1509 15.3141
28 1 -35.6214 24.1127 14.764
29 1 -36.4754 24.0111 14.3765
30 1 -37.337 23.8606 14.0474
31 1 -38.1609 23.5502 13.7184
32 1 -38.9171 23.0977 13.3088
ITEM: TIMESTEP
2000000
ITEM: NUMBER OF ATOMS
32
ITEM: BOX BOUNDS mm mm mm
-4.2249983044495210e+01 1.6000000000000000e+01
-1.6000000000000000e+01 3.1097712112653802e+01
-1.6000000000000000e+01 1.9433955860644662e+01
ITEM: ATOMS id type x y z
1 1 -18.6545 30.7214 5.53258
2 1 -19.5256 31.0265 5.73573
3 1 -20.4432 31.0677 5.76393
4 1 -21.3477 30.9002 5.95764
5 1 -22.2358 30.7433 6.22618
6 1 -23.1504 30.7467 6.49623
7 1 -24.0688 30.7037 6.71722
8 1 -24.8853 30.705 7.20159
9 1 -25.6762 30.4966 7.77623
10 1 -26.48 30.2218 8.22234
11 1 -27.4139 30.1947 8.45866
12 1 -28.2787 30.2092 8.86637
13 1 -29.0713 30.1598 9.39645
14 1 -29.5769 30.3614 10.1459
15 1 -30.1571 30.598 10.8284
16 1 -30.924 30.7343 11.3203
17 1 -31.759 30.6193 11.8317
18 1 -32.4055 30.4239 12.4536
19 1 -33.2361 30.1106 12.7118
20 1 -34.0117 29.6806 13.0462
21 1 -34.8504 29.4152 13.4959
22 1 -35.5241 28.9726 14.002
23 1 -36.2597 28.6031 14.522
24 1 -36.9681 28.3897 15.0477
25 1 -37.7289 28.135 15.5517
26 1 -38.3547 27.8073 16.1356
27 1 -39.0441 27.4155 16.7012
28 1 -39.6082 26.867 17.2002
29 1 -40.2713 26.4313 17.6156
30 1 -40.9999 26.1889 18.0883
31 1 -41.7003 26.133 18.7125
32 1 -42.4104 26.0005 19.32
ITEM: TIMESTEP
2010000
ITEM: NUMBER OF ATOMS
32
ITEM: BOX BOUNDS mm mm mm
-3.2866513796414779e+01 1.6000000000000000e+01
-1.6000000000000000e+01 3.4690773467400000e+01
-1.6000000000000000e+01 1.6000000000000000e+01
ITEM: ATOMS id type x y z
1 1 -15.9847 30.7683 6.46244
2 1 -16.4523 31.5664 6.22712
3 1 -17.0796 32.2696 6.187
4 1 -17.8282 32.9135 6.32639
5 1 -18.3936 33.5933 6.46793
6 1 -19.2387 34.0409 6.66923
7 1 -20.0875 34.4056 6.7467
8 1 -20.9554 34.6134 6.86885
9 1 -21.8771 34.6297 7.00473
10 1 -22.8126 34.5237 7.25646
11 1 -23.6537 34.4578 7.70803
12 1 -24.6396 34.4403 7.85175
13 1 -25.3303 33.9653 8.37081
14 1 -26.0502 33.3372 8.4746
15 1 -26.7031 32.6637 8.66615
16 1 -27.3459 31.9389 8.7407
17 1 -28.0372 31.2779 8.87754
18 1 -28.7666 30.7205 9.08605
19 1 -29.5946 30.394 9.48494
20 1 -30.4861 30.3277 9.70864
21 1 -31.2374 29.8892 10.081
22 1 -31.809 29.4737 10.6789
23 1 -32.2493 28.9077 11.3116
24 1 -32.5626 28.1121 11.7602
25 1 -32.8559 27.2538 12.0693
26 1 -32.8608 26.5064 12.6577
27 1 -32.6183 25.7455 13.1964
28 1 -32.4653 24.9433 13.6308
29 1 -32.2472 24.1005 13.9581
30 1 -31.9186 23.1716 14.1527
31 1 -31.2622 22.4478 14.0681
32 1 -30.7391 21.6832 14.1763
ITEM: TIMESTEP
2020000
ITEM: NUMBER OF ATOMS
32
ITEM: BOX BOUNDS mm mm mm
-3.7347004730676090e+01 1.6000000000000000e+01
-1.6000000000000000e+01 3.4909827999723269e+01
-1.6000000000000000e+01 1.8370086162744325e+01
ITEM: ATOMS id type x y z
1 1 -21.5467 34.1927 0.0819109
2 1 -21.8164 34.3795 0.942159
3 1 -22.0317 34.268 1.81208
4 1 -22.2976 34.1391 2.70527
5 1 -22.5623 34.0281 3.5781
6 1 -22.8857 34.0568 4.47224
7 1 -23.2326 33.9067 5.36414
8 1 -23.8102 34.0395 6.20901
9 1 -24.3119 34.3993 6.94648
10 1 -24.7824 34.6601 7.68394
11 1 -25.3919 34.7828 8.39401
12 1 -26.2383 34.6808 8.827
13 1 -26.9586 34.4041 9.40379
14 1 -27.7664 34.0602 9.83637
15 1 -28.4226 33.6218 10.4002
16 1 -29.0961 33.1227 10.8109
17 1 -29.7359 32.4939 10.9543
18 1 -30.391 31.8073 11.0586
19 1 -31.1442 31.185 11.1459
20 1 -31.7283 30.497 11.3143
21 1 -32.2921 29.8095 11.608
22 1 -33.0078 29.4729 12.1192
23 1 -33.6032 29.1312 12.7651
24 1 -34.0726 28.9072 13.5297
25 1 -34.5689 28.9189 14.3356
26 1 -35.0968 29.0048 15.0966
27 1 -35.5253 29.4777 15.8909
28 1 -35.9728 30.049 16.4935
29 1 -36.3051 30.7506 17.1038
30 1 -36.4893 31.4125 17.6935
31 1 -36.6255 32.1789 18.2087
32 1 -36.8586 33.0273 18.5364
ITEM: TIMESTEP
2030000
ITEM: NUMBER OF ATOMS
32
ITEM: BOX BOUNDS mm mm mm
-3.0537525731401239e+01 1.6000000000000000e+01
-1.6000000000000000e+01 3.5204637018288103e+01
-1.6000000000000000e+01 1.6000000000000000e+01
ITEM: ATOMS id type x y z
1 1 -23.4493 35.1091 -6.29492
2 1 -23.8896 34.9425 -5.5035
3 1 -24.1627 35.0754 -4.61032
4 1 -24.5505 35.1213 -3.7774
5 1 -25.0213 35.0617 -2.97702
6 1 -25.5014 35.2075 -2.21084
7 1 -26.113 35.0568 -1.47731
8 1 -26.8378 34.7907 -0.861704
9 1 -27.5913 34.6162 -0.346007
10 1 -28.07 34.2006 0.351388
11 1 -28.5176 33.839 1.12149
12 1 -29.092 33.4823 1.79101
13 1 -29.4458 32.9195 2.50056
14 1 -29.4251 32.2623 3.14551
15 1 -29.5637 31.7956 3.94612
16 1 -29.9154 31.3698 4.73827
17 1 -30.3049 30.8894 5.37864
18 1 -30.4535 30.2406 6.05179
19 1 -30.3881 29.4203 6.53244
20 1 -30.3335 28.5424 6.80697
21 1 -30.498 27.6274 6.87335
22 1 -30.4337 26.7102 6.99372
23 1 -30.2119 25.8602 7.44979
24 1 -30.3212 24.9573 7.80921
25 1 -30.0709 24.0946 8.1184
26 1 -30.1894 23.1492 8.10786
27 1 -30.1116 22.1727 8.12262
28 1 -29.8016 21.3467 7.97786
29 1 -29.374 20.7814 7.32004
30 1 -28.9743 20.3776 6.58424
31 1 -28.7878 20.1307 5.7229
32 1 -28.5265 19.6171 4.95731
ITEM: TIMESTEP
2040000
ITEM: NUMBER OF ATOMS
32
ITEM: BOX BOUNDS mm mm mm
-3.2846906411977763e+01 1.6000000000000000e+01
-1.6000000000000000e+01 4.4046646996000376e+01
-1.6000000000000000e+01 1.6000000000000000e+01
ITEM: ATOMS id type x y z
1 1 -32.9507 43.8023 -6.3517
2 1 -32.7229 43.2479 -5.64331
3 1 -32.6248 42.631 -4.97329
4 1 -32.4769 41.9383 -4.38607
5 1 -32.3009 41.5437 -3.56528
6 1 -32.3228 41.0618 -2.78539
7 1 -32.054 40.5409 -2.06024
8 1 -32.0109 39.9277 -1.37249
9 1 -32.1468 39.3017 -0.720265
10 1 -32.1507 38.564 -0.132436
11 1 -32.1428 37.9662 0.580879
12 1 -31.7968 37.3381 1.20607
13 1 -31.4123 36.6703 1.73901
14 1 -31.2481 35.8924 2.21669
15 1 -31.1354 35.3834 2.99721
16 1 -30.8418 34.7899 3.72925
17 1 -30.6482 34.0536 4.23907
18 1 -30.3993 33.2174 4.54155
19 1 -30.1734 32.309 4.60398
20 1 -29.9984 31.3817 4.83481
21 1 -29.9327 30.4824 4.85495
22 1 -29.837 29.5295 4.92262
23 1 -29.8631 28.621 4.81615
24 1 -29.7643 27.7469 4.50408
25 1 -29.6978 26.8558 4.1718
26 1 -29.493 26.0317 3.80892
27 1 -29.1575 25.1584 3.59796
28 1 -28.555 24.4827 3.35326
29 1 -27.751 23.9933 3.26614
30 1 -26.9322 23.5401 3.20437
31 1 -26.2993 22.8592 3.37342
32 1 -25.9253 21.9819 3.38634
ITEM: TIMESTEP
2050000
ITEM: NUMBER OF ATOMS
32
ITEM: BOX BOUNDS mm mm mm
-4.0350637767697634e+01 1.6000000000000000e+01
-1.6000000000000000e+01 4.5024586645116834e+01
-1.6000000000000000e+01 1.6000000000000000e+01
ITEM: ATOMS id type x y z
1 1 -40.3512 45.2243 -0.0825722
2 1 -39.5421 44.8926 0.258206
3 1 -38.8487 44.3293 0.524875
4 1 -38.1116 43.7465 0.705955
5 1 -37.4536 43.0171 0.85903
6 1 -36.8731 42.4478 1.3148
7 1 -36.4136 41.8042 1.90611
8 1 -36.0773 41.1165 2.4421
9 1 -35.8475 40.3644 2.98421
10 1 -35.5089 39.5572 3.38918
11 1 -35.2299 38.7806 3.78545
12 1 -34.8198 38.0096 4.03492
13 1 -34.3751 37.1808 3.96721
14 1 -33.9401 36.3482 3.82487
15 1 -33.6462 35.5002 3.96812
16 1 -33.0604 34.7429 4.23882
17 1 -32.4836 34.0413 4.41631
18 1 -31.9548 33.32 4.78525
19 1 -31.5782 32.434 5.0051
20 1 -31.2707 31.5571 5.21298
21 1 -31.0252 30.7019 5.56207
22 1 -30.8703 29.8255 5.76082
23 1 -30.7388 28.9602 5.90657
24 1 -30.6844 28.0521 5.94303
25 1 -30.7353 27.1864 6.49739
26 1 -30.7493 26.397 7.01213
27 1 -30.7861 25.6903 7.56477
28 1 -30.8449 25.0302 8.24483
29 1 -31.0353 24.3553 8.89595
30 1 -31.0544 23.7059 9.59771
31 1 -31.2132 23.0483 10.2353
32 1 -31.0272 22.2736 10.6979
ITEM: TIMESTEP
2060000
ITEM: NUMBER OF ATOMS
32
ITEM: BOX BOUNDS mm mm mm
-3.8213342244967784e+01 1.6000000000000000e+01
-1.6000000000000000e+01 4.4498130650251341e+01
-1.6000000000000000e+01 1.6000000000000000e+01
ITEM: ATOMS id type x y z
1 1 -34.6132 44.4251 -2.25042
2 1 -34.8415 43.6174 -1.81787
3 1 -34.9468 42.834 -1.40213
4 1 -35.3844 42.0641 -1.20158
5 1 -35.8157 41.3426 -0.829626
6 1 -36.2561 40.7111 -0.337667
7 1 -36.7515 39.9955 0.0610557
8 1 -37.2481 39.4511 0.61183
9 1 -37.6824 39.0304 1.32978
10 1 -38.0066 38.4404 1.94756
11 1 -38.1122 37.9423 2.71864
12 1 -38.1374 37.278 3.39232
13 1 -37.8979 36.4588 3.74157
14 1 -37.2596 35.7957 3.96143
15 1 -36.4604 35.3541 4.04072
16 1 -35.6817 34.8291 4.1946
17 1 -34.9411 34.2303 4.3559
18 1 -34.2115 33.7323 4.67165
19 1 -33.5314 33.0658 4.8601
20 1 -32.7836 32.5313 5.07884
21 1 -32.0376 32.0669 5.33242
22 1 -31.3175 31.4976 5.63258
23 1 -30.6604 30.7761 5.86118
24 1 -30.1722 30.0402 6.18784
25 1 -29.896 29.3207 6.75941
26 1 -29.8841 28.7373 7.46681
27 1 -29.6106 28.1857 8.19778
28 1 -29.644 27.4215 8.80468
29 1 -29.4877 26.6959 9.37771
30 1 -29.3015 26.0137 9.99224
31 1 -28.9295 25.3723 10.5661
32 1 -28.437 24.6614 11.123
ITEM: TIMESTEP
2070000
ITEM: NUMBER OF ATOMS
32
ITEM: BOX BOUNDS mm mm mm
-3.6806437032119554e+01 1.6000000000000000e+01
-1.6000000000000000e+01 4.8886998522648327e+01
-1.6000000000000000e+01 1.6000000000000000e+01
ITEM: ATOMS id type x y z
1 1 -33.856 48.7494 0.161266
2 1 -34.4701 48.0606 0.346104
3 1 -35.0805 47.4158 0.507558
4 1 -35.6597 46.7507 0.826951
5 1 -35.9047 45.958 1.27947
6 1 -36.196 45.1914 1.81796
7 1 -36.1276 44.4624 2.38046
8 1 -36.0766 43.6375 2.87163
9 1 -36.2024 42.8823 3.47777
10 1 -36.4079 42.2831 4.19827
11 1 -36.7273 41.7136 4.86359
12 1 -36.7669 40.9138 5.39569
13 1 -36.7973 40.2239 6.08657
14 1 -36.8222 39.4999 6.74337
15 1 -36.5543 38.8984 7.40653
16 1 -36.511 37.999 7.60622
17 1 -36.1951 37.173 7.94013
18 1 -35.8759 36.4315 8.31356
19 1 -35.5302 35.7986 8.96745
20 1 -35.1985 35.1307 9.55588
21 1 -34.7507 34.4125 10.0343
22 1 -34.2003 33.6986 10.4525
23 1 -33.7057 32.9644 10.7827
24 1 -33.1877 32.2402 11.1645
25 1 -32.7904 31.4268 11.5665
26 1 -32.356 30.6167 11.8702
27 1 -31.9793 29.7593 11.9997
28 1 -31.7536 28.8472 12.1008
29 1 -31.7803 27.937 12.4005
30 1 -31.8977 27.1498 12.8644
31 1 -31.8308 26.4967 13.5486
32 1 -32.0646 26.0367 14.3842
ITEM: TIMESTEP
2080000
ITEM: NUMBER OF ATOMS
32
ITEM: BOX BOUNDS mm mm mm
-3.9089442148052719e+01 1.6000000000000000e+01
-1.6000000000000000e+01 4.4611043741277996e+01
-1.6000000000000000e+01 1.6000000000000000e+01
ITEM: ATOMS id type x y z
1 1 -34.7888 44.6594 -2.7936
2 1 -34.6746 44.3711 -1.8974
3 1 -34.5993 44.0482 -1.07164
4 1 -34.8116 43.5479 -0.352538
5 1 -35.0158 43.0701 0.463165
6 1 -35.4425 42.5908 1.22818
7 1 -35.5803 41.9046 1.82066
8 1 -35.8185 41.4572 2.6051
9 1 -35.9521 40.855 3.32935
10 1 -35.9813 40.2599 4.07037
11 1 -36.2354 39.6537 4.75976
12 1 -36.3502 39.0698 5.485
13 1 -36.6788 38.5526 6.21367
14 1 -37.0257 37.814 6.65836
15 1 -37.2302 37.0583 7.13651
16 1 -37.4123 36.1963 7.53648
17 1 -37.314 35.2352 7.70014
18 1 -37.2774 34.3267 7.74016
19 1 -37.3225 33.4032 7.62477
20 1 -37.5108 32.5061 7.65191
21 1 -37.7747 31.5927 7.99986
22 1 -38.2385 30.8376 8.37908
23 1 -38.4075 29.9566 8.56678
24 1 -38.4648 29.0528 8.80588
25 1 -38.76 28.2011 9.19843
26 1 -38.8976 27.4012 9.64901
27 1 -39.0023 26.575 10.1044
28 1 -38.8862 25.7771 10.5585
29 1 -38.6945 24.9843 11.041
30 1 -38.3324 24.3228 11.6078
31 1 -38.0993 23.7374 12.292
32 1 -37.8901 22.9937 12.9259
ITEM: TIMESTEP
2090000
ITEM: NUMBER OF ATOMS
32
ITEM: BOX BOUNDS mm mm mm
-3.9375080439426370e+01 1.6000000000000000e+01
-1.6000000000000000e+01 3.4629452119020122e+01
-1.6000000000000000e+01 1.6050146951548474e+01
ITEM: ATOMS id type x y z
1 1 -26.6883 34.6766 -3.23008
2 1 -26.6483 34.5168 -2.32611
3 1 -26.7717 34.1582 -1.44794
4 1 -26.9356 33.6955 -0.657074
5 1 -27.1276 33.0714 0.018563
6 1 -27.4932 32.4445 0.563722
7 1 -27.9016 31.9544 1.31038
8 1 -28.1566 31.6623 2.15641
9 1 -28.5072 31.3312 2.93333
10 1 -28.9936 31.0199 3.66668
11 1 -29.4488 30.6924 4.38465
12 1 -30.1175 30.7934 5.06705
13 1 -30.6949 30.8644 5.82347
14 1 -31.199 31.1547 6.5894
15 1 -31.6363 31.2858 7.38938
16 1 -32.3945 31.3896 7.97467
17 1 -33.1505 31.1938 8.4285
18 1 -33.9654 30.9204 8.80207
19 1 -34.6542 30.5027 9.28152
20 1 -35.3833 30.0797 9.76183
21 1 -35.5994 29.5222 10.4109
22 1 -35.7421 28.7456 10.9712
23 1 -35.8915 28.1998 11.6846
24 1 -36.2148 27.6173 12.3374
25 1 -36.316 26.8499 12.9583
26 1 -36.5378 26.1717 13.5991
27 1 -36.9128 25.4651 14.1027
28 1 -37.3563 24.7915 14.6408
29 1 -37.9163 24.0892 14.9284
30 1 -38.3817 23.3251 15.2701
31 1 -38.6858 22.4901 15.6666
32 1 -39.0663 21.6769 16.0479
ITEM: TIMESTEP
2100000
ITEM: NUMBER OF ATOMS
32
ITEM: BOX BOUNDS mm mm mm
-4.3209338096938794e+01 1.6000000000000000e+01
-1.6000000000000000e+01 3.1982845352792406e+01
-1.6000000000000000e+01 1.6000000000000000e+01
ITEM: ATOMS id type x y z
1 1 -27.3828 29.1564 -3.1241
2 1 -27.4621 29.1001 -2.16271
3 1 -27.8869 29.1935 -1.33544
4 1 -28.1424 29.5036 -0.485418