ITEM: TIMESTEP
1940000
ITEM: NUMBER OF ATOMS
32
ITEM: BOX BOUNDS mm mm mm
-1.6000000000000000e+01 1.6000000000000000e+01
-1.6000000000000000e+01 2.3906263039345983e+01
-2.4232537250882643e+01 1.6000000000000000e+01
ITEM: ATOMS id type x y z
1 1 -10.4462 14.3162 -23.5723
2 1 -9.62786 14.1387 -23.1419
3 1 -9.12116 14.9041 -22.901
4 1 -9.00548 15.2088 -23.7302
5 1 -9.6319 15.739 -24.2285
6 1 -9.17909 16.3788 -23.7573
7 1 -8.32707 16.0807 -23.5002
8 1 -8.08408 16.2332 -22.6091
9 1 -7.17205 15.9635 -22.4826
10 1 -6.58175 15.5295 -23.0866
11 1 -6.32275 14.7818 -22.4979
12 1 -6.93528 14.8387 -21.7904
13 1 -7.61966 15.2334 -21.3232
14 1 -8.34253 15.8228 -21.102
15 1 -7.62082 16.1514 -20.7034
16 1 -8.16899 16.9026 -20.5113
17 1 -9.0269 17.2196 -20.7675
18 1 -9.74582 17.7302 -20.9511
19 1 -9.9675 18.0835 -21.7993
20 1 -9.61995 18.3174 -22.6429
21 1 -8.94798 18.8681 -23.0259
22 1 -8.29481 19.5778 -22.8434
23 1 -7.69128 20.2246 -22.4513
24 1 -7.72093 21.1395 -22.3196
25 1 -8.61782 20.8964 -22.1773
26 1 -8.2692 21.0855 -21.306
27 1 -7.49792 21.5911 -20.9873
28 1 -7.68144 22.512 -21.2624
29 1 -6.94771 22.9594 -20.9274
30 1 -7.00066 23.9023 -21.1293
31 1 -6.1338 23.6196 -20.8759
32 1 -5.26947 23.2505 -21.0016
ITEM: TIMESTEP
1950000
ITEM: NUMBER OF ATOMS
32
ITEM: BOX BOUNDS mm mm mm
-1.6000000000000000e+01 1.6000000000000000e+01
-1.6000000000000000e+01 1.7359844715135672e+01
-3.1252163444598949e+01 1.6000000000000000e+01
ITEM: ATOMS id type x y z
1 1 -4.53212 14.5419 -31.2011
2 1 -4.80937 15.4067 -30.9839
3 1 -5.45513 15.4763 -30.3383
4 1 -5.11438 15.1342 -29.526
5 1 -5.44656 14.3058 -29.3547
6 1 -5.72141 13.6271 -28.7707
7 1 -6.65229 13.3037 -28.408
8 1 -7.44859 12.9593 -27.8545
9 1 -7.79895 12.3294 -27.2255
10 1 -8.5031 11.8974 -26.6985
11 1 -8.4217 12.2393 -25.8225
12 1 -8.268 11.9763 -24.9307
13 1 -8.01237 11.1554 -25.3314
14 1 -7.13338 11.5289 -25.1698
15 1 -6.40561 12.0279 -25.085
16 1 -6.55926 11.791 -24.1309
17 1 -5.66417 11.7117 -23.8359
18 1 -5.25832 11.0546 -24.5159
19 1 -5.14639 11.1685 -25.4368
20 1 -5.23241 12.1036 -25.603
21 1 -4.59773 12.8081 -25.6048
22 1 -3.76436 13.0655 -25.1804
23 1 -2.95556 12.9345 -25.6699
24 1 -2.54765 13.4156 -26.4
25 1 -1.88416 13.7758 -26.8839
26 1 -2.20782 14.3402 -27.5306
27 1 -2.75652 15.0637 -27.6256
28 1 -3.49323 14.8661 -28.1048
29 1 -3.36646 15.5649 -28.6592
30 1 -3.28048 15.9884 -27.8589
31 1 -3.52453 16.9041 -27.8149
32 1 -3.69932 17.2591 -28.6309
ITEM: TIMESTEP
1960000
ITEM: NUMBER OF ATOMS
32
ITEM: BOX BOUNDS mm mm mm
-1.6000000000000000e+01 1.6000000000000000e+01
-1.6000000000000000e+01 1.9816697016130941e+01
-2.8879426827188571e+01 1.6000000000000000e+01
ITEM: ATOMS id type x y z
1 1 -7.97891 10.0905 -24.8512
2 1 -8.4051 10.5117 -24.0449
3 1 -9.04617 11.0353 -23.6095
4 1 -8.61507 11.9151 -23.7732
5 1 -9.03534 12.389 -24.4716
6 1 -8.69485 13.0829 -25.0297
7 1 -8.80355 14.0522 -25.0129
8 1 -8.09582 14.0418 -25.5526
9 1 -7.37785 13.5039 -25.8408
10 1 -6.576 14.0817 -25.9639
11 1 -6.51747 15.0125 -25.732
12 1 -6.24282 15.3867 -26.5317
13 1 -5.30183 15.2209 -26.2556
14 1 -5.20293 14.38 -26.7002
15 1 -4.69293 14.095 -27.4173
16 1 -3.70402 14.0048 -27.5798
17 1 -3.30066 14.7315 -27.1424
18 1 -3.8827 15.4285 -26.8021
19 1 -3.24034 16.1232 -26.6578
20 1 -3.14775 16.9388 -26.1954
21 1 -3.01272 17.7605 -26.5757
22 1 -2.7391 18.6497 -26.3845
23 1 -2.37025 19.3172 -26.9906
24 1 -1.51582 19.4377 -27.3317
25 1 -0.616414 19.1063 -27.2888
26 1 -0.0640129 19.2068 -28.0832
27 1 -0.878033 19.3496 -28.5342
28 1 -1.60166 18.6965 -28.2333
29 1 -2.53177 18.7436 -27.8738
30 1 -3.33361 18.4796 -28.3368
31 1 -3.9373 17.9799 -28.8531
32 1 -3.9978 17.3419 -28.1556
ITEM: TIMESTEP
1970000
ITEM: NUMBER OF ATOMS
32
ITEM: BOX BOUNDS mm mm mm
-1.6000000000000000e+01 1.6000000000000000e+01
-1.6000000000000000e+01 1.7550018429915585e+01
-3.1500450380906543e+01 1.6000000000000000e+01
ITEM: ATOMS id type x y z
1 1 -6.81063 17.4573 -30.2786
2 1 -5.90259 17.2776 -30.0136
3 1 -5.58174 16.7468 -29.2834
4 1 -5.88594 16.0513 -29.8509
5 1 -6.53029 15.3987 -30.2388
6 1 -6.72688 15.2887 -31.1363
7 1 -7.15899 14.553 -30.7793
8 1 -7.72653 13.8296 -31.0095
9 1 -8.37841 14.0125 -30.4108
10 1 -8.10568 14.8915 -30.1556
11 1 -8.63068 15.6738 -30.0986
12 1 -8.7181 16.3677 -30.7506
13 1 -9.36917 17.0019 -31.0236
14 1 -10.19 17.2298 -31.5395
15 1 -10.8452 16.7137 -31.1506
16 1 -11.3394 15.8866 -31.3947
17 1 -10.9536 15.7197 -30.5127
18 1 -11.2124 16.3741 -29.8255
19 1 -11.6801 17.1846 -29.9953
20 1 -11.868 17.4225 -29.1156
21 1 -11.7054 17.0683 -28.215
22 1 -10.7701 17.0922 -28.2546
23 1 -10.6992 16.8884 -27.3144
24 1 -10.0663 16.4913 -26.7116
25 1 -10.1017 16.2789 -25.8169
26 1 -9.44241 16.7133 -25.4106
27 1 -9.55572 16.5349 -24.4765
28 1 -10.0519 16.1142 -23.8272
29 1 -10.326 15.3519 -23.375
30 1 -9.96639 14.468 -23.6009
31 1 -9.05571 14.3348 -23.5777
32 1 -8.8148 13.931 -22.7718
ITEM: TIMESTEP
1980000
ITEM: NUMBER OF ATOMS
32
ITEM: BOX BOUNDS mm mm mm
-1.7571246104463249e+01 1.6000000000000000e+01
-1.6000000000000000e+01 2.0935517854142930e+01
-3.3147470526722998e+01 1.6000000000000000e+01
ITEM: ATOMS id type x y z
1 1 -12.429 13.586 -27.9941
2 1 -11.5684 13.3265 -28.2061
3 1 -10.9887 13.9945 -27.8006
4 1 -11.1144 14.6182 -28.4437
5 1 -11.0603 14.1773 -29.2758
6 1 -10.2322 13.6122 -29.3319
7 1 -9.27727 13.7103 -29.2106
8 1 -8.82296 14.0458 -28.4788
9 1 -9.61221 14.6188 -28.6251
10 1 -9.23008 15.1193 -29.3824
11 1 -8.76171 15.538 -30.0353
12 1 -9.46779 15.4398 -30.7015
13 1 -9.94185 16.2481 -30.52
14 1 -10.7945 16.5743 -30.7382
15 1 -10.2953 16.4734 -31.5374
16 1 -10.4379 16.7569 -32.3909
17 1 -10.5183 16.9239 -33.318
18 1 -11.2508 17.4601 -33.2272
19 1 -11.8908 17.4265 -32.547
20 1 -12.6692 18.0088 -32.3286
21 1 -12.6915 17.5228 -31.514
22 1 -13.5456 17.5069 -31.1853
23 1 -14.3165 17.1927 -31.7261
24 1 -15.0032 17.1166 -32.3715
25 1 -15.1615 18.0351 -32.4267
26 1 -15.8916 17.9714 -31.8267
27 1 -16.8416 17.6801 -31.7797
28 1 -17.1494 18.5654 -31.9134
29 1 -17.1571 19.4529 -32.1498
30 1 -17.0572 20.214 -32.7009
31 1 -16.8954 21.1039 -32.5418
32 1 -16.62 21.574 -31.7023
ITEM: TIMESTEP
1990000
ITEM: NUMBER OF ATOMS
32
ITEM: BOX BOUNDS mm mm mm
-1.6000000000000000e+01 1.6000000000000000e+01
-1.6000000000000000e+01 2.3830408768020447e+01
-3.1502148099546943e+01 1.6000000000000000e+01
ITEM: ATOMS id type x y z
1 1 -12.3974 15.7499 -30.4102
2 1 -12.5659 16.4141 -31.0625
3 1 -13.0134 16.6227 -30.2287
4 1 -13.0624 17.5466 -29.997
5 1 -12.8614 18.5058 -29.8513
6 1 -12.9493 18.9004 -28.961
7 1 -13.2581 18.7171 -28.1134
8 1 -12.4822 18.5772 -27.6087
9 1 -11.9774 17.9265 -27.9803
10 1 -11.1394 17.6738 -27.582
11 1 -10.4812 18.2611 -27.2408
12 1 -10.2951 19.1074 -27.6349
13 1 -9.72413 19.7464 -27.2801
14 1 -9.54177 20.2234 -28.0711
15 1 -9.32708 20.1999 -28.9762
16 1 -8.58071 19.8727 -29.4738
17 1 -8.14815 20.7308 -29.4538
18 1 -8.75586 21.4146 -29.2616
19 1 -8.96876 22.2423 -28.8926
20 1 -9.81233 22.6046 -29.1527
21 1 -10.6498 22.5496 -28.7263
22 1 -11.4238 22.0965 -28.4309
23 1 -12.2784 22.4239 -28.0588
24 1 -12.332 23.327 -28.1122
25 1 -12.7912 23.7369 -28.7927
26 1 -12.754 22.837 -29.0185
27 1 -13.2084 22.1656 -29.4113
28 1 -13.3751 22.361 -30.318
29 1 -12.7063 21.9014 -30.772
30 1 -13.0998 21.1096 -30.3886
31 1 -13.3556 20.2817 -30.7408
32 1 -13.569 20.5376 -31.5972
ITEM: TIMESTEP
2000000
ITEM: NUMBER OF ATOMS
32
ITEM: BOX BOUNDS mm mm mm
-1.6000000000000000e+01 1.6000000000000000e+01
-1.6000000000000000e+01 2.8408234926560134e+01
-3.0301684520982356e+01 1.6000000000000000e+01
ITEM: ATOMS id type x y z
1 1 -10.4196 21.8918 -24.7354
2 1 -10.2196 21.0311 -24.4639
3 1 -10.415 20.1681 -24.788
4 1 -10.3713 20.2955 -25.7344
5 1 -9.71461 21.0139 -25.8603
6 1 -8.80037 20.7852 -25.875
7 1 -8.37285 21.5459 -26.1447
8 1 -7.74199 21.3298 -26.8279
9 1 -7.50901 22.0348 -27.4106
10 1 -7.68703 22.8679 -27.7019
11 1 -6.93017 23.1548 -27.245
12 1 -7.02425 24.0191 -26.8743
13 1 -7.93538 24.1633 -26.7959
14 1 -8.79765 23.9672 -27.1661
15 1 -9.51811 23.4459 -27.0125
16 1 -10.3465 23.6664 -27.4276
17 1 -11.2325 23.3948 -27.4729
18 1 -11.7788 22.9393 -28.1467
19 1 -12.0109 23.4281 -28.9811
20 1 -12.0301 24.1883 -29.6008
21 1 -11.4867 24.0821 -30.3093
22 1 -10.7802 24.6352 -30.1327
23 1 -10.3326 25.0152 -29.459
24 1 -10.2728 25.3975 -28.6137
25 1 -10.6027 26.2708 -28.3524
26 1 -11.2285 26.1885 -27.7025
27 1 -12.0969 26.4203 -27.7372
28 1 -12.1421 26.8401 -28.6063
29 1 -11.5804 27.4029 -29.1021
30 1 -11.2938 27.7351 -29.9815
31 1 -11.6252 28.5234 -30.2009
32 1 -11.9881 28.3374 -29.3307
ITEM: TIMESTEP
2010000
ITEM: NUMBER OF ATOMS
32
ITEM: BOX BOUNDS mm mm mm
-1.6000000000000000e+01 1.6000000000000000e+01
-1.6000000000000000e+01 3.1433684581621876e+01
-2.9516418561221133e+01 1.6000000000000000e+01
ITEM: ATOMS id type x y z
1 1 -7.42839 25.8687 -28.224
2 1 -7.93101 26.5191 -27.6683
3 1 -8.82969 26.6941 -27.544
4 1 -9.31047 25.9516 -27.91
5 1 -9.95876 25.5983 -28.4651
6 1 -9.75891 24.7367 -28.1318
7 1 -8.93338 24.3418 -28.0336
8 1 -8.49776 23.544 -28.0344
9 1 -8.61769 22.7734 -27.5408
10 1 -7.85048 22.5192 -27.1165
11 1 -8.47474 22.38 -26.4666
12 1 -8.64673 23.1504 -25.9744
13 1 -9.23732 23.6704 -26.4801
14 1 -8.31205 23.8442 -26.6125
15 1 -7.71241 24.3375 -26.1185
16 1 -7.15181 25.1416 -26.2178
17 1 -7.46515 25.9221 -25.7646
18 1 -8.08786 26.4166 -25.1469
19 1 -8.43963 27.2896 -25.0209
20 1 -9.25137 27.0434 -25.5311
21 1 -9.87743 27.1899 -26.2387
22 1 -10.3246 27.8224 -26.8191
23 1 -10.3402 28.475 -27.4965
24 1 -11.0416 29.1182 -27.8789
25 1 -10.8918 29.3125 -28.8352
26 1 -10.8673 30.1347 -29.3628
27 1 -11.4748 30.8094 -29.1799
28 1 -11.2355 30.5908 -28.3266
29 1 -11.4822 30.1228 -27.5432
30 1 -12.1939 30.7109 -27.4724
31 1 -12.9291 31.0743 -27.9172
32 1 -13.4549 30.8915 -28.6658
ITEM: TIMESTEP
2020000
ITEM: NUMBER OF ATOMS
32
ITEM: BOX BOUNDS mm mm mm
-1.6000000000000000e+01 1.6000000000000000e+01
-1.6000000000000000e+01 3.0451287532067571e+01
-2.5306845256198983e+01 1.6000000000000000e+01
ITEM: ATOMS id type x y z
1 1 -11.5996 27.1795 -25.156
2 1 -10.7988 26.6511 -25.0877
3 1 -11.1815 25.7617 -25.2522
4 1 -10.4934 25.6354 -24.6267
5 1 -9.85921 25.0689 -24.1904
6 1 -9.70202 25.8933 -23.7277
7 1 -10.484 26.2343 -23.3789
8 1 -10.9395 26.8808 -22.8664
9 1 -11.6638 26.3832 -23.2036
10 1 -12.4377 26.7791 -23.6134
11 1 -12.9791 27.3241 -24.1602
12 1 -13.6058 27.9675 -24.0564
13 1 -12.9646 28.6412 -24.0977
14 1 -13.4244 29.4243 -24.2045
15 1 -13.4992 30.3237 -23.9507
16 1 -13.4866 30.281 -22.956
17 1 -13.3646 31.0639 -22.441
18 1 -12.382 31.0929 -22.5243
19 1 -12.2788 30.1831 -22.2649
20 1 -12.6861 29.3634 -22.4433
21 1 -12.5949 29.0836 -21.5512
22 1 -12.0878 28.2227 -21.545
23 1 -11.3653 28.6739 -21.1264
24 1 -10.7758 28.8312 -20.4429
25 1 -10.572 28.9446 -19.5233
26 1 -11.3969 28.481 -19.3531
27 1 -12.287 28.2031 -19.2886
28 1 -12.0394 28.1101 -20.1196
29 1 -12.5499 27.2515 -20.1769
30 1 -13.2716 27.1134 -20.798
31 1 -13.4224 27.8794 -21.3517
32 1 -13.137 27.9022 -22.2701
ITEM: TIMESTEP
2030000
ITEM: NUMBER OF ATOMS
32
ITEM: BOX BOUNDS mm mm mm
-1.6000000000000000e+01 1.6000000000000000e+01
-1.6000000000000000e+01 3.4199649423650385e+01
-2.6684463834001452e+01 1.6000000000000000e+01
ITEM: ATOMS id type x y z
1 1 -8.81748 30.2473 -26.6046
2 1 -9.04625 29.582 -26.0293
3 1 -8.9477 29.1624 -25.2179
4 1 -9.34327 28.8918 -24.3802
5 1 -10.1657 29.2383 -23.9777
6 1 -10.779 29.8905 -23.6153
7 1 -10.288 30.5318 -23.1261
8 1 -10.9503 30.6904 -22.4292
9 1 -11.1894 29.8745 -22.0402
10 1 -10.4437 29.4553 -21.5896
11 1 -9.75818 28.8133 -21.7473
12 1 -8.92488 29.2789 -21.731
13 1 -8.48223 29.4985 -22.5526
14 1 -8.90611 29.9973 -23.2773
15 1 -9.14782 30.723 -23.8416
16 1 -9.0524 30.4595 -24.7221
17 1 -9.26828 31.3757 -24.7988
18 1 -10.1865 31.1289 -24.4939
19 1 -10.4722 31.7306 -23.8214
20 1 -10.5025 32.711 -23.8423
21 1 -10.9516 32.763 -23.0239
22 1 -11.7802 33.1574 -23.1746
23 1 -11.9693 34.1131 -23.2741
24 1 -12.178 34.4432 -24.1558
25 1 -11.9337 33.6409 -24.4981
26 1 -11.8159 32.7658 -24.1834
27 1 -12.7066 32.4192 -23.9492
28 1 -13.5789 32.6758 -24.2568
29 1 -14.2716 32.2785 -24.7199
30 1 -14.8232 32.8011 -24.0937
31 1 -15.2338 33.4511 -23.5051
32 1 -15.6218 34.0872 -22.9192
ITEM: TIMESTEP
2040000
ITEM: NUMBER OF ATOMS
32
ITEM: BOX BOUNDS mm mm mm
-1.6000000000000000e+01 1.6000000000000000e+01
-1.6000000000000000e+01 3.0935721901923205e+01
-2.5925051276645107e+01 1.6000000000000000e+01
ITEM: ATOMS id type x y z
1 1 -11.5278 30.8304 -23.3786
2 1 -11.8142 30.3358 -24.0897
3 1 -12.6398 29.8766 -24.2199
4 1 -12.8102 28.9481 -24.3284
5 1 -12.8663 29.104 -23.3718
6 1 -12.7954 28.3212 -22.7714
7 1 -13.1992 27.5743 -23.0427
8 1 -12.8858 27.2761 -22.2188
9 1 -12.0203 27.0704 -21.979
10 1 -11.2933 26.7572 -22.5062
11 1 -10.4482 27.1303 -22.6406
12 1 -9.72359 27.6284 -22.9002
13 1 -10.1945 27.6627 -23.685
14 1 -10.9488 28.0906 -24.1151
15 1 -10.8084 27.9551 -25.0712
16 1 -10.9507 28.2103 -25.9919
17 1 -11.1613 29.012 -25.5789
18 1 -10.2243 29.201 -25.769
19 1 -9.37308 29.4039 -25.4787
20 1 -8.92088 28.5388 -25.6695
21 1 -7.99071 28.4382 -25.8498
22 1 -7.3479 27.9206 -25.3855
23 1 -6.44352 27.9174 -25.1506
24 1 -6.85691 27.5912 -24.4022
25 1 -6.57224 27.0192 -23.6597
26 1 -7.32643 26.7827 -23.1446
27 1 -6.54648 26.5539 -22.7301
28 1 -6.12453 27.1163 -22.1226
29 1 -5.52163 27.7982 -22.2834
30 1 -5.27983 28.5886 -21.9218
31 1 -4.5451 29.0779 -21.564
32 1 -3.91681 28.7693 -22.2451
ITEM: TIMESTEP
2050000
ITEM: NUMBER OF ATOMS
32
ITEM: BOX BOUNDS mm mm mm
-1.6000000000000000e+01 1.6000000000000000e+01
-1.6000000000000000e+01 3.8117428998728791e+01
-2.8155177641495584e+01 1.6000000000000000e+01
ITEM: ATOMS id type x y z
1 1 -6.68966 37.9887 -25.9699
2 1 -7.47325 37.4968 -25.8571
3 1 -8.3386 37.2154 -26.2361
4 1 -9.19738 37.3245 -25.8541
5 1 -9.26468 37.3268 -26.7985
6 1 -9.89279 36.9072 -27.2914
7 1 -10.2635 36.0157 -27.1436
8 1 -9.78144 35.7872 -27.9078
9 1 -10.3256 35.0962 -28.3123
10 1 -10.2033 34.4982 -27.621
11 1 -10.5677 34.4626 -26.7787
12 1 -11.4514 34.4429 -27.1523
13 1 -11.6101 33.5705 -27.0971
14 1 -10.9985 33.0206 -26.5484
15 1 -11.5656 32.2432 -26.4103
16 1 -12.5094 32.3264 -26.1412
17 1 -13.2981 32.5354 -26.5192
18 1 -13.7695 32.2129 -25.8068
19 1 -14.2392 32.8979 -25.4971
20 1 -14.3182 33.0345 -24.518
21 1 -14.0657 32.1702 -24.144
22 1 -13.7018 31.3295 -24.0688
23 1 -13.4831 30.4346 -24.2071
24 1 -14.3532 30.2771 -24.5138
25 1 -14.3714 29.3489 -24.6834
26 1 -13.8313 29.237 -23.9076
27 1 -13.4664 29.1393 -23.02
28 1 -12.6676 29.5635 -23.212
29 1 -12.4606 30.3085 -22.6145
30 1 -11.6563 30.7699 -22.7426
31 1 -11.4666 29.9257 -23.0635
32 1 -11.5333 29.322 -22.3464
ITEM: TIMESTEP
2060000
ITEM: NUMBER OF ATOMS
32
ITEM: BOX BOUNDS mm mm mm
-1.8024135948563924e+01 1.6000000000000000e+01
-1.6000000000000000e+01 3.7946058666870535e+01
-2.9779301231827642e+01 1.6000000000000000e+01
ITEM: ATOMS id type x y z
1 1 -17.9703 37.62 -28.831
2 1 -17.9239 37.5941 -29.7684
3 1 -17.1376 37.9247 -29.3566
4 1 -16.6934 37.3421 -28.768
5 1 -16.109 37.0487 -28.1549
6 1 -15.3912 36.554 -27.7798
7 1 -15.7598 36.1256 -26.9976
8 1 -15.0266 36.3588 -26.4938
9 1 -14.8985 35.4655 -26.7262
10 1 -15.2825 34.5972 -26.723
11 1 -15.6709 34.5625 -27.5705
12 1 -15.901 34.0098 -28.3049
13 1 -16.49 33.8651 -27.6667
14 1 -16.0606 33.7154 -26.8119
15 1 -16.0846 33.0307 -26.2043
16 1 -16.31 32.299 -25.6791
17 1 -15.6737 31.6509 -25.776
18 1 -15.2996 31.062 -25.0673
19 1 -15.0571 30.183 -25.2435
20 1 -14.1448 30.1212 -24.9916
21 1 -13.3036 30.2862 -25.4239
22 1 -12.6174 30.138 -24.856
23 1 -12.8959 30.2616 -23.9776
24 1 -13.7596 30.6465 -23.8696
25 1 -13.6837 31.3878 -23.2802
26 1 -13.0333 31.7113 -23.9208
27 1 -12.1599 31.4582 -23.6426
28 1 -11.2252 31.2785 -23.4464
29 1 -10.2791 31.4421 -23.4687
30 1 -9.76215 30.7123 -23.2734
31 1 -10.0488 30.1991 -23.988
32 1 -9.68875 29.5359 -24.5474
ITEM: TIMESTEP
2070000
ITEM: NUMBER OF ATOMS
32
ITEM: BOX BOUNDS mm mm mm
-1.6689783351954102e+01 1.6000000000000000e+01
-1.6000000000000000e+01 3.4291553798276404e+01
-2.6790460175277040e+01 1.6000000000000000e+01
ITEM: ATOMS id type x y z
1 1 -10.2547 30.3777 -24.8751
2 1 -9.4224 30.1008 -25.1648
3 1 -8.65944 30.3285 -25.6844
4 1 -8.86047 31.2468 -25.8041
5 1 -9.65122 30.813 -25.8621
6 1 -10.5568 31.0428 -26.0265
7 1 -10.9615 31.8687 -26.187
8 1 -11.0787 32.5577 -26.7779
9 1 -11.4131 33.4054 -26.494
10 1 -11.4319 34.2591 -26.1557
11 1 -12.3705 34.3057 -26.1726
12 1 -12.4242 33.4119 -26.0306
13 1 -13.4014 33.4218 -26.039
14 1 -13.8899 32.6721 -26.0464
15 1 -14.4525 32.4788 -26.7732
16 1 -14.972 33.1348 -26.3784
17 1 -15.0012 33.359 -25.4559
18 1 -15.1203 33.2491 -24.5131
19 1 -14.9007 32.6397 -23.757
20 1 -14.4939 32.2791 -22.988
21 1 -14.855 31.3683 -23.0462
22 1 -15.5675 31.8706 -22.631
23 1 -16.519 32.1787 -22.6163
24 1 -16.6252 33.0521 -22.3136
25 1 -15.8206 33.5843 -22.3137
26 1 -15.0431 33.6014 -21.7847
27 1 -14.9114 33.3555 -20.8463
28 1 -14.4308 32.9356 -20.1389
29 1 -14.4127 33.0068 -19.2145
30 1 -14.9725 33.2253 -18.4388
31 1 -14.9202 34.1427 -18.5297
32 1 -14.0603 34.1924 -18.1797
ITEM: TIMESTEP
2080000
ITEM: NUMBER OF ATOMS
32
ITEM: BOX BOUNDS mm mm mm
-1.6000000000000000e+01 1.6000000000000000e+01
-1.6000000000000000e+01 3.4420535765220919e+01
-3.0471281124467495e+01 1.6000000000000000e+01
ITEM: ATOMS id type x y z
1 1 -15.2585 29.0299 -28.0631
2 1 -15.0381 29.8503 -28.5378
3 1 -14.0698 29.9647 -28.6018
4 1 -13.8143 29.5012 -29.4385
5 1 -13.9999 29.9733 -30.2891
6 1 -13.089 29.9549 -30.3244
7 1 -13.0263 30.4081 -29.4637
8 1 -12.8291 30.2764 -28.5941
9 1 -12.3557 29.7636 -27.9854
10 1 -12.5 30.3656 -27.249
11 1 -12.1291 31.1199 -26.895
12 1 -12.2341 31.8633 -27.5137
13 1 -12.1745 32.6536 -27.9871
14 1 -12.2622 33.4635 -28.448
15 1 -12.4191 33.6541 -27.5052
16 1 -12.13 34.4816 -27.1366
17 1 -11.6864 34.355 -26.3356
18 1 -11.648 33.4621 -26.1339
19 1 -12.6055 33.6204 -26.164
20 1 -12.8938 33.2621 -25.2854
21 1 -13.1908 32.3785 -25.0902
22 1 -12.9367 32.0389 -24.2317
23 1 -11.9401 32.0896 -24.3718
24 1 -11.2782 31.5663 -23.9773
25 1 -10.3733 31.7397 -23.8465
26 1 -9.49103 31.9713 -24.0598
27 1 -8.66834 32.4327 -23.9457
28 1 -8.12799 32.6259 -23.1691
29 1 -7.44917 31.9924 -23.1776
30 1 -7.26655 31.2895 -23.7518
31 1 -7.56035 30.9775 -24.6051
32 1 -8.50492 30.9058 -24.6553
ITEM: TIMESTEP
2090000
ITEM: NUMBER OF ATOMS
32
ITEM: BOX BOUNDS mm mm mm
-1.6000000000000000e+01 1.6000000000000000e+01
-1.6000000000000000e+01 3.6472733452454420e+01
-3.0573263760719353e+01 1.6000000000000000e+01
ITEM: ATOMS id type x y z
1 1 -12.8711 36.4118 -30.5289
2 1 -12.4072 35.7818 -29.9756
3 1 -12.1377 35.0566 -30.412
4 1 -11.8114 34.5335 -29.7243
5 1 -11.8126 33.7512 -29.1615
6 1 -10.8734 33.9531 -29.2354
7 1 -10.4837 34.3407 -28.4756
8 1 -9.58521 34.1341 -28.3852
9 1 -8.76055 34.522 -28.4673
10 1 -9.06223 34.9035 -27.6389
11 1 -9.46068 34.3215 -27.0792
12 1 -9.63966 33.7717 -26.3697
13 1 -10.3488 33.7139 -25.7252
14 1 -10.5638 33.0086 -25.161
15 1 -10.7422 32.2052 -24.6765
16 1 -11.4032 31.5376 -24.8147
17 1 -11.6834 31.219 -25.6418
18 1 -12.251 30.6421 -26.0802
19 1 -11.8383 29.8514 -25.8094
20 1 -11.9345 29.2324 -25.0837
21 1 -11.9016 28.4682 -24.547
22 1 -11.285 28.8247 -23.9156
23 1 -10.8887 29.351 -24.57
24 1 -9.9426 29.663 -24.6601
25 1 -9.86259 30.2227 -23.885
26 1 -9.65117 29.5693 -23.2473
27 1 -10.0752 30.1864 -22.7366
28 1 -9.89082 31.0147 -22.3713
29 1 -10.1268 31.8582 -21.9383
30 1 -9.19135 31.8753 -21.9085
31 1 -9.37482 31.6052 -21.0094
32 1 -9.4785 30.9667 -20.3667
ITEM: TIMESTEP
2100000
ITEM: NUMBER OF ATOMS
32
ITEM: BOX BOUNDS mm mm mm
-1.6000000000000000e+01 1.6000000000000000e+01
-1.6000000000000000e+01 3.1831725288649704e+01
-3.0051779796745826e+01 1.6000000000000000e+01
ITEM: ATOMS id type x y z
1 1 -7.0491 31.6765 -29.9473
2 1 -6.97573 31.232 -29.0301
3 1 -6.48579 30.6906 -29.6643
4 1 -6.08794 29.8665 -29.3945
5 1 -6.85032 29.6756 -28.928
6 1 -7.31437 28.9245 -28.6471
7 1 -8.07626 29.3549 -28.2796
8 1 -8.64054 29.9625 -27.7859
9 1 -9.55019 29.9521 -27.6285
10 1 -9.45107 30.5442 -28.3693
11 1 -9.05596 31.3278 -28.1104
12 1 -8.2319 30.9345 -27.9962
13 1 -7.43739 30.5386 -27.5994
14 1 -7.19157 29.7921 -27.1189
15 1 -6.48405 30.3948 -27.0522
16 1 -5.70754 30.8136 -27.3739
17 1 -5.89217 31.7186 -27.1663
18 1 -4.93971 31.8727 -27.1464
19 1 -4.03023 31.4884 -27.2495
20 1 -3.25202 31.7133 -26.7862
21 1 -2.57511 31.3561 -26.2456
22 1 -2.51759 30.6414 -25.6305
23 1 -3.42786 30.3778 -25.5569
24 1 -3.75278 29.499 -25.3534
25 1 -3.92604 28.5754 -25.5347
26 1 -4.49747 28.3284 -26.3098
27 1 -5.24193 27.8955 -25.9472
28 1 -5.31441 26.9943 -25.8433
29 1 -5.32931 26.0588 -26.0081
30 1 -5.51089 25.4933 -26.7161
31 1 -5.52327 24.6011 -26.5118
32 1 -5.67231 23.9264 -27.0998
ITEM: TIMESTEP
2110000
ITEM: NUMBER OF ATOMS
32
ITEM: BOX BOUNDS mm mm mm
-1.6000000000000000e+01 1.6000000000000000e+01
-1.6000000000000000e+01 2.8106100620218523e+01
-2.9562517164985856e+01 1.6000000000000000e+01
ITEM: ATOMS id type x y z
1 1 -7.60932 28.1745 -22.9561
2 1 -7.58509 27.2586 -23.1695
3 1 -7.89742 27.4644 -24.0179
4 1 -7.90095 27.4511 -24.9251
5 1 -7.21905 27.4739 -25.6047
6 1 -6.98044 26.7615 -25.0986
7 1 -6.41296 26.1356 -24.6795
8 1 -5.98923 25.2703 -24.5892
9 1 -5.52197 24.7107 -23.9676
10 1 -6.20905 24.1553 -23.7592
11 1 -6.27515 23.4986 -24.4522
12 1 -5.70978 23.5943 -25.2025
13 1 -5.95666 23.6238 -26.1049
14 1 -5.05196 23.486 -25.965
15 1 -4.29813 23.6303 -25.4647
16 1 -3.95252 24.3023 -24.9579
17 1 -3.43554 24.9101 -25.4555
18 1 -3.43123 25.8141 -25.9099
19 1 -3.76459 25.4111 -26.7148
20 1 -3.36535 25.1785 -27.4819
21 1 -3.1119 26.0328 -27.8321
22 1 -2.65056 26.8717 -27.9737
23 1 -1.98983 26.5827 -28.5877
24 1 -1.87392 25.6945 -28.8664
25 1 -2.28738 24.8042 -28.8282
26 1 -2.67013 24.2531 -29.4834
27 1 -3.3299 24.7531 -29.039
28 1 -4.18154 25.1194 -29.0356
29 1 -5.12292 25.2909 -28.7887
30 1 -4.85411 24.3828 -28.6103
31 1 -5.221 24.1093 -27.7818
32 1 -5.38266 24.9673 -27.4734
ITEM: TIMESTEP
2120000
ITEM: NUMBER OF ATOMS
32
ITEM: BOX BOUNDS mm mm mm
-1.6000000000000000e+01 1.6000000000000000e+01
-1.6000000000000000e+01 2.9781233150774927e+01
-2.9636861341044494e+01 1.6000000000000000e+01
ITEM: ATOMS id type x y z
1 1 -6.13577 28.739 -24.4814
2 1 -5.59713 28.1132 -23.9877
3 1 -5.47449 28.063 -24.9544
4 1 -5.5766 28.0617 -25.933
5 1 -5.24241 27.4266 -26.5306
6 1 -4.81376 28.0831 -27.0003
7 1 -4.54908 28.3635 -26.1333
8 1 -4.27653 29.2622 -25.8484
9 1 -3.68044 29.7504 -26.3864
10 1 -3.46032 29.7778 -27.2802
11 1 -2.67638 29.2198 -27.1293
12 1 -2.7006 28.5964 -26.3975
13 1 -1.82777 28.3359 -26.6925
14 1 -2.11662 27.397 -26.967
15 1 -2.97922 27.0906 -26.9114
16 1 -3.25119 26.2106 -26.9489
17 1 -3.14879 25.3965 -26.4671
18 1 -3.25216 24.4795 -26.4964
19 1 -3.64023 23.9525 -27.1733
20 1 -3.87901 23.0762 -27.4736
21 1 -4.66142 22.8407 -27.916
22 1 -5.53711 22.5126 -27.8749
23 1 -6.31218 22.5566 -28.4202
24 1 -7.07077 22.06 -28.4698
25 1 -7.99736 22.2517 -28.4319
26 1 -8.62581 22.2912 -29.1757
27 1 -9.34693 22.8526 -29.4684
28 1 -10.1227 23.3498 -29.4779
29 1 -10.3389 24.2489 -29.6589
30 1 -11.1133 24.7075 -29.7168
31 1 -11.697 24.5968 -29.0043
32 1 -11.0726 24.9891 -28.3549
ITEM: TIMESTEP
2130000
ITEM: NUMBER OF ATOMS
32
ITEM: BOX BOUNDS mm mm mm
-1.6000000000000000e+01 1.6000000000000000e+01
-1.6000000000000000e+01 2.9120583441811043e+01
-2.3443229571078422e+01 1.6000000000000000e+01
ITEM: ATOMS id type x y z
1 1 -4.73991 28.0509 -17.5433
2 1 -4.18773 27.4142 -17.1158
3 1 -3.48779 27.4275 -16.5117
4 1 -2.68493 27.446 -17.0102
5 1 -2.69922 26.7459 -16.3524
6 1 -2.00222 26.931 -15.8048
7 1 -1.31253 26.7862 -16.4203
8 1 -1.33022 26.3807 -17.257
9 1 -2.02171 26.3936 -17.9482
10 1 -2.38427 26.8581 -18.7119
11 1 -2.02561 27.4544 -19.2947
12 1 -1.31794 26.817 -19.2136
13 1 -1.56056 26.6991 -20.1296
14 1 -0.784712 26.1639 -20.1524
15 1 -0.168982 25.4249 -20.0277
16 1 0.56744 25.4906 -20.6349
17 1 0.274992 25.3756 -21.4971
18 1 0.243263 25.6037 -22.384
19 1 -0.609528 25.8045 -22.0585
20 1 -1.26037 26.4512 -21.7683
21 1 -1.60629 25.8908 -22.4474
22 1 -1.75593 25.2788 -23.1788
23 1 -2.55176 25.8228 -23.2652
24 1 -3.3065 26.3205 -23.355
25 1 -4.13855 25.9587 -23.6112
26 1 -4.24211 25.7329 -22.7348
27 1 -4.85002 26.2695 -22.3469
28 1 -4.0736 26.8776 -22.1895
29 1 -3.64604 27.3001 -22.9577
30 1 -4.40184 27.7522 -23.3198
31 1 -3.71894 28.4236 -23.4682
32 1 -3.44104 29.2481 -23.0133
ITEM: TIMESTEP
2140000
ITEM: NUMBER OF ATOMS
32
ITEM: BOX BOUNDS mm mm mm
-1.6000000000000000e+01 1.6000000000000000e+01
-1.6000000000000000e+01 3.0571845571829616e+01
-2.8559611599320036e+01 1.6000000000000000e+01
ITEM: ATOMS id type x y z
1 1 -4.75432 31.0027 -18.3359
2 1 -4.64384 30.4187 -19.0994
3 1 -4.57873 30.2046 -19.9751
4 1 -3.71597 29.7901 -19.9792
5 1 -3.69518 29.0445 -20.5195
6 1 -3.7327 28.1445 -20.3553
7 1 -3.31817 27.4475 -20.8174
8 1 -2.95968 26.5892 -20.9887
9 1 -3.04502 25.7504 -21.2817
10 1 -2.96084 25.6479 -22.2287
11 1 -2.89691 24.7242 -21.9848
12 1 -3.0129 23.8531 -22.3014
13 1 -2.11533 23.7467 -22.0845
14 1 -1.74069 24.4296 -22.7121
15 1 -1.99593 24.0293 -23.5092
16 1 -1.90966 24.097 -24.4479
17 1 -1.17639 24.6084 -24.6761
18 1 -1.20214 25.506 -24.9767
19 1 -0.652317 25.7665 -25.7887
20 1 -0.0352917 25.1006 -25.5692
21 1 0.288009 25.306 -26.4394
22 1 -0.264644 24.9807 -27.1087
23 1 -0.899319 24.4341 -27.5089
24 1 -1.0325 24.4135 -28.5137
25 1 -1.80822 24.2788 -27.9492
26 1 -1.88124 23.9481 -27.0876
27 1 -1.61761 23.0514 -27.0498
28 1 -1.70531 23.4429 -26.1211
29 1 -1.19697 23.6419 -25.4276
30 1 -0.463659 23.101 -25.4721
31 1 0.157661 23.1557 -24.8263
32 1 0.499341 22.6623 -25.6155
ITEM: TIMESTEP
2150000
ITEM: NUMBER OF ATOMS
32
ITEM: BOX BOUNDS mm mm mm
-1.6000000000000000e+01 1.6000000000000000e+01
-1.6000000000000000e+01 2.9446949228805590e+01
-2.2453340502674806e+01 1.6000000000000000e+01
ITEM: ATOMS id type x y z
1 1 2.24512 28.2774 -17.4564
2 1 2.10989 28.8739 -16.7476
3 1 2.85911 29.4133 -16.3605
4 1 3.54618 28.8197 -16.5638
5 1 3.5935 28.4128 -17.3924
6 1 4.27879 28.0296 -17.9113
7 1 3.53433 27.5552 -18.2815
8 1 3.63326 28.1232 -19.0109
9 1 3.44329 27.5345 -19.7048
10 1 3.45169 27.7985 -20.6602
11 1 3.10101 28.6624 -20.6062
12 1 2.28771 29.0079 -20.9973
13 1 2.37489 29.2172 -21.8876
14 1 1.66281 28.5962 -21.9648
15 1 1.13991 27.8333 -21.8684
16 1 1.31454 26.8181 -21.9842
17 1 1.06888 25.9283 -21.9434
18 1 1.51254 25.1915 -21.5424
19 1 1.59809 25.0872 -20.6055
20 1 2.07543 25.7333 -20.0175
21 1 2.74509 26.2314 -20.4931
22 1 3.62382 26.2287 -20.1585
23 1 4.09885 26.9883 -20.6058
24 1 4.85715 27.06 -20.0779
25 1 5.5829 27.2879 -20.6069
26 1 5.82869 26.7154 -21.3795
27 1 5.17083 27.2471 -21.7376
28 1 4.40342 27.6717 -22.086
29 1 4.9939 28.3381 -22.4174
30 1 5.93466 28.06 -22.21
31 1 6.73828 27.9519 -21.7282
32 1 7.36077 28.56 -21.4591
ITEM: TIMESTEP
2160000
ITEM: NUMBER OF ATOMS
32
ITEM: BOX BOUNDS mm mm mm
-1.6000000000000000e+01 1.6000000000000000e+01
-1.6000000000000000e+01 2.7939295613191049e+01
-2.4742566960999760e+01 1.6000000000000000e+01
ITEM: ATOMS id type x y z
1 1 2.96969 25.204 -18.9122
2 1 3.12311 26.074 -19.0122
3 1 2.82903 26.9142 -19.1683
4 1 3.80914 27.1063 -19.1763
5 1 4.67311 26.6237 -19.2541
6 1 4.97896 27.3402 -19.6913
7 1 4.75965 27.4802 -20.596
8 1 4.74856 26.9707 -21.4501
9 1 3.98614 26.4497 -21.4069
10 1 3.05086 26.2829 -21.212
11 1 3.23881 25.9381 -20.3712
12 1 2.43125 25.5034 -20.488
13 1 1.66714 26.0144 -20.6995
14 1 2.07995 25.8742 -21.5291
15 1 1.90402 26.749 -21.818
16 1 2.05497 27.6737 -21.7254
17 1 1.08338 27.6934 -21.9161
18 1 0.432861 27.3799 -22.5161
19 1 0.767653 27.665 -23.3172
20 1 1.41578 27.134 -22.7904
21 1 1.95974 26.5602 -23.2754
22 1 2.35394 25.8408 -23.7598
23 1 2.50495 24.9236 -23.5219
24 1 2.8452 24.3908 -24.2149
25 1 2.08609 24.105 -24.6734
26 1 2.05918 23.643 -23.8013
27 1 1.5456 22.9917 -23.4337
28 1 2.24775 22.8317 -22.8226
29 1 3.18367 22.6261 -22.714
30 1 2.98783 21.7069 -22.4771
31 1 3.32624 21.208 -21.7554
32 1 2.52521 20.6928 -21.9171
ITEM: TIMESTEP
2170000
ITEM: NUMBER OF ATOMS
32
ITEM: BOX BOUNDS mm mm mm
-1.6000000000000000e+01 1.6000000000000000e+01
-1.6000000000000000e+01 2.9468730583732473e+01
-3.1621861535574549e+01 1.6000000000000000e+01
ITEM: ATOMS id type x y z
1 1 6.01568 27.3909 -18.5913
2 1 5.76822 26.4915 -18.2623
3 1 5.69288 25.939 -19.0511
4 1 5.90413 25.8678 -19.9571
5 1 4.99556 26.1157 -20.1068
6 1 4.55744 26.9426 -19.8892
7 1 3.84441 27.5283 -19.6559
8 1 3.83103 28.338 -19.1996
9 1 4.42992 28.7133 -19.8696
10 1 4.76813 28.8964 -20.7289
11 1 4.45146 28.5426 -21.563
12 1 4.92819 28.4396 -22.3086
13 1 5.18452 28.4992 -23.2612
14 1 4.31407 28.166 -23.2993
15 1 4.54309 27.9348 -24.182
16 1 3.84484 28.3965 -24.6024
17 1 3.11851 27.8023 -24.8123
18 1 2.79787 27.768 -25.7218
19 1 2.05926 28.0843 -25.1984
20 1 2.40574 28.9307 -25.5214
21 1 2.51797 29.3834 -26.3443
22 1 2.77404 28.7293 -27.0316
23 1 1.99999 29.1999 -27.2453
24 1 1.16937 28.9752 -27.6563
25 1 1.61179 28.2355 -27.2984
26 1 1.15255 27.497 -27.7086
27 1 1.08932 26.847 -28.4053
28 1 0.672727 26.2636 -29.0967
29 1 0.0877432 25.8385 -29.7371
30 1 0.532833 26.2736 -30.4758
31 1 0.195894 26.8534 -31.1177
32 1 -0.481067 27.3717 -31.5761
ITEM: TIMESTEP
2180000
ITEM: NUMBER OF ATOMS
32
ITEM: BOX BOUNDS mm mm mm
-1.6000000000000000e+01 1.6000000000000000e+01
-1.6000000000000000e+01 2.8602532707890088e+01
-2.6870790682891293e+01 1.6000000000000000e+01
ITEM: ATOMS id type x y z
1 1 4.92637 28.5446 -23.152
2 1 4.61898 27.6968 -23.1034
3 1 5.58589 27.7316 -22.9714
4 1 6.15276 27.9373 -23.6776
5 1 5.77281 28.6386 -24.1976
6 1 5.4778 28.0426 -24.841
7 1 5.51224 27.52 -25.5883
8 1 5.28208 27.3656 -26.5055
9 1 5.89792 26.7758 -26.8727
10 1 6.55869 27.42 -26.6893
11 1 7.23004 27.5058 -26.046
12 1 7.91369 27.0335 -25.4975
13 1 7.99049 26.1413 -25.8261
14 1 8.2714 25.2137 -25.6864
15 1 7.41256 24.9101 -25.4048
16 1 6.62126 25.3395 -25.1999
17 1 5.74263 25.1997 -25.4237
18 1 5.69776 26.1205 -25.4213
19 1 5.2675 26.3488 -24.6648
20 1 5.48437 25.6835 -24.0172
21 1 5.19188 25.1819 -23.274
22 1 4.47261 25.2925 -22.6716
23 1 4.40741 26.225 -22.9744
24 1 3.55568 26.5616 -23.1119