ITEM: TIMESTEP
1590000
ITEM: NUMBER OF ATOMS
32
ITEM: BOX BOUNDS mm mm mm
-2.6514710127247167e+01 1.6000000000000000e+01
-1.6000000000000000e+01 3.3930077218175235e+01
-1.6000000000000000e+01 2.2383252683894902e+01
ITEM: ATOMS id type x y z
1 1 -24.9262 17.0722 22.3801
2 1 -25.2828 17.8242 22.0314
3 1 -25.5364 18.5229 21.4577
4 1 -25.6631 19.057 20.72
5 1 -26.0773 19.7428 20.1224
6 1 -26.5115 20.6053 20.0823
7 1 -26.4886 21.5092 20.3451
8 1 -26.2363 22.4011 20.5267
9 1 -25.9441 23.126 21.0336
10 1 -25.397 23.8824 21.314
11 1 -25.0096 24.7281 21.1564
12 1 -24.6697 25.58 20.9151
13 1 -24.4935 26.1907 20.1815
14 1 -24.4018 26.5892 19.3153
15 1 -24.432 26.6604 18.38
16 1 -24.5882 26.7075 17.4827
17 1 -24.4587 26.6755 16.5788
18 1 -24.0623 27.1237 15.8886
19 1 -23.8433 27.8497 15.2947
20 1 -23.5935 28.5939 14.8475
21 1 -23.4775 29.2803 14.2357
22 1 -23.5313 29.9522 13.6174
23 1 -23.9527 30.4962 12.9949
24 1 -24.2166 30.8884 12.2162
25 1 -24.7043 31.4103 11.5456
26 1 -24.8991 31.8282 10.7631
27 1 -25.2146 32.1795 9.92098
28 1 -25.3871 32.7097 9.13322
29 1 -25.9617 33.0626 8.43067
30 1 -25.9964 33.214 7.4642
31 1 -25.8036 33.5106 6.59017
32 1 -25.4948 33.9269 5.8295
ITEM: TIMESTEP
1600000
ITEM: NUMBER OF ATOMS
32
ITEM: BOX BOUNDS mm mm mm
-3.0595454201318134e+01 1.6000000000000000e+01
-1.6000000000000000e+01 2.7563924073387337e+01
-1.6000000000000000e+01 2.0763981872923125e+01
ITEM: ATOMS id type x y z
1 1 -30.6081 13.6556 19.4841
2 1 -30.5741 14.6026 19.4502
3 1 -30.2866 15.4944 19.3534
4 1 -30.0552 16.3673 19.263
5 1 -30.0755 17.3268 19.2075
6 1 -29.9888 18.207 19.4507
7 1 -29.6274 19.0934 19.5021
8 1 -29.1243 19.9316 19.446
9 1 -28.5571 20.5785 19.7719
10 1 -28.1755 21.2315 20.4865
11 1 -27.5796 21.9311 20.7038
12 1 -27.2177 22.7959 20.8888
13 1 -26.6705 23.5062 20.469
14 1 -26.3083 24.1672 19.9227
15 1 -26.042 24.9813 19.4861
16 1 -25.6278 25.7293 19.0953
17 1 -25.0568 26.2866 18.5661
18 1 -24.5772 26.7883 17.8888
19 1 -24.2464 27.2583 17.1118
20 1 -23.8943 27.4884 16.2666
21 1 -23.6777 27.4619 15.336
22 1 -23.5438 27.644 14.4811
23 1 -23.1832 28.042 13.6763
24 1 -22.8382 27.7719 12.8493
25 1 -22.4743 27.4089 11.9915
26 1 -22.6595 26.841 11.2406
27 1 -23.3197 26.5369 10.6082
28 1 -23.6638 26.0692 9.86181
29 1 -24.2612 25.5252 9.39268
30 1 -24.7737 25.1922 8.70663
31 1 -25.3634 24.8122 8.04896
32 1 -25.8096 24.6228 7.2452
ITEM: TIMESTEP
1610000
ITEM: NUMBER OF ATOMS
32
ITEM: BOX BOUNDS mm mm mm
-3.1679361355691544e+01 1.6000000000000000e+01
-1.6000000000000000e+01 2.6164467343989184e+01
-1.6000000000000000e+01 1.9225624139823889e+01
ITEM: ATOMS id type x y z
1 1 -31.6738 17.7888 14.8941
2 1 -31.295 18.598 15.0917
3 1 -30.7734 19.2802 15.4896
4 1 -30.3388 19.7499 16.1612
5 1 -29.8812 20.21 16.9243
6 1 -29.4156 20.8237 17.4785
7 1 -29.0553 21.3759 18.2424
8 1 -28.6578 22.0925 18.7741
9 1 -28.3149 22.8218 19.252
10 1 -28.1376 23.7431 19.1413
11 1 -27.6964 24.5666 18.9957
12 1 -27.0253 25.0925 18.6203
13 1 -26.2834 25.5245 18.2335
14 1 -25.734 25.9771 17.6229
15 1 -25.3464 26.0252 16.8276
16 1 -24.7408 26.1051 16.1409
17 1 -24.4923 25.8216 15.3049
18 1 -23.9218 25.6021 14.5799
19 1 -23.2912 25.3621 13.9424
20 1 -22.7437 25.4935 13.1529
21 1 -22.3679 25.2788 12.2756
22 1 -22.48 24.8944 11.4223
23 1 -22.4598 24.2854 10.659
24 1 -22.4587 23.5889 10.0193
25 1 -22.4477 22.732 9.64477
26 1 -22.3692 21.9027 9.31705
27 1 -22.439 20.9822 9.13767
28 1 -22.5446 20.0805 8.82851
29 1 -22.5673 19.1084 8.7716
30 1 -22.6605 18.1816 8.61296
31 1 -22.6202 17.2206 8.87637
32 1 -22.6823 16.3216 9.25662
ITEM: TIMESTEP
1620000
ITEM: NUMBER OF ATOMS
32
ITEM: BOX BOUNDS mm mm mm
-2.6452385767002657e+01 1.6000000000000000e+01
-1.6000000000000000e+01 2.2094403633033256e+01
-1.6000000000000000e+01 1.8622970535297053e+01
ITEM: ATOMS id type x y z
1 1 -27.0922 12.7269 16.0068
2 1 -26.2451 12.4274 16.3469
3 1 -25.511 12.1433 16.9162
4 1 -25.0378 12.0035 17.6504
5 1 -24.3354 12.0225 18.3168
6 1 -23.5231 12.3995 18.5688
7 1 -22.6967 12.7999 18.6522
8 1 -21.9222 13.3189 18.6379
9 1 -21.3634 14.0582 18.5226
10 1 -20.8339 14.842 18.366
11 1 -20.2531 15.5105 18.4804
12 1 -19.6795 16.2695 18.3913
13 1 -18.9972 16.9178 18.0802
14 1 -18.3969 17.5443 17.7303
15 1 -17.9334 18.2126 17.2224
16 1 -17.5024 18.673 16.5662
17 1 -16.9841 19.2578 16.0372
18 1 -16.6455 19.8072 15.252
19 1 -16.75 20.2242 14.4336
20 1 -16.8918 20.5167 13.5712
21 1 -16.9262 20.3803 12.5948
22 1 -17.2717 20.2314 11.711
23 1 -17.3527 20.4465 10.8214
24 1 -17.6692 20.7351 9.94633
25 1 -17.9261 20.9078 9.04144
26 1 -18.2885 20.6265 8.26534
27 1 -18.7654 20.5462 7.49022
28 1 -19.2036 20.6508 6.64624
29 1 -19.5088 20.6497 5.75703
30 1 -19.3452 20.9398 4.84617
31 1 -19.2748 21.4823 4.07662
32 1 -18.9274 22.0874 3.41832
ITEM: TIMESTEP
1630000
ITEM: NUMBER OF ATOMS
32
ITEM: BOX BOUNDS mm mm mm
-2.8761159058519489e+01 1.6000000000000000e+01
-1.6000000000000000e+01 2.0940216904263643e+01
-1.6000000000000000e+01 2.1708123355416220e+01
ITEM: ATOMS id type x y z
1 1 -28.7136 8.52812 21.6972
2 1 -27.9875 8.8752 21.1935
3 1 -27.3565 9.32286 20.6087
4 1 -26.7702 10.0064 20.4711
5 1 -26.2954 10.8176 20.3324
6 1 -26.0143 11.7048 20.3589
7 1 -25.7782 12.592 20.3317
8 1 -25.2605 13.353 20.0339
9 1 -24.7241 14.0993 19.8857
10 1 -24.2814 14.9254 19.8091
11 1 -23.9993 15.7962 19.6125
12 1 -23.4431 16.6213 19.553
13 1 -23.1663 17.4576 19.4644
14 1 -22.5845 18.1419 19.2798
15 1 -22.1891 18.7874 18.6753
16 1 -21.8479 19.2495 17.9018
17 1 -21.3065 19.4893 17.1863
18 1 -20.8793 19.6529 16.3364
19 1 -20.2668 19.9321 15.6734
20 1 -20.0193 20.4898 14.9745
21 1 -19.9146 20.842 14.0927
22 1 -19.7719 20.9611 13.1598
23 1 -19.3031 20.6736 12.4061
24 1 -19.0917 20.3583 11.5287
25 1 -18.9853 20.2969 10.6015
26 1 -19.04 20.5974 9.71045
27 1 -19.2286 20.7495 8.84576
28 1 -19.6732 20.811 8.01185
29 1 -20.1658 20.531 7.28298
30 1 -20.9085 20.2188 6.77169
31 1 -21.4757 19.6211 6.30668
32 1 -22.0604 18.9844 5.91418
ITEM: TIMESTEP
1640000
ITEM: NUMBER OF ATOMS
32
ITEM: BOX BOUNDS mm mm mm
-2.7838819094724439e+01 1.6000000000000000e+01
-1.6000000000000000e+01 2.2946106147628885e+01
-1.6000000000000000e+01 1.6000000000000000e+01
ITEM: ATOMS id type x y z
1 1 -28.0311 22.9108 15.2532
2 1 -27.1654 22.4555 15.1022
3 1 -26.6036 21.7308 14.8735
4 1 -26.2093 20.9965 14.3852
5 1 -25.9491 20.2482 13.8969
6 1 -26.0998 19.3656 13.7236
7 1 -26.2322 18.4456 13.4375
8 1 -26.3088 17.4807 13.263
9 1 -26.0565 16.5565 13.2573
10 1 -25.419 15.8786 13.2924
11 1 -24.7904 15.1791 13.2702
12 1 -23.8818 14.9354 13.2812
13 1 -22.9731 14.7431 13.4598
14 1 -22.0557 14.4528 13.4188
15 1 -21.1344 14.2096 13.3126
16 1 -20.4641 13.5968 13.4722
17 1 -19.5296 13.4571 13.223
18 1 -18.701 13.2202 12.7544
19 1 -17.8021 13.0762 12.4717
20 1 -16.9515 12.9462 12.0374
21 1 -16.2257 13.027 11.4796
22 1 -15.4412 13.1519 10.9486
23 1 -14.5305 13.2725 10.7143
24 1 -13.6385 13.4806 10.5613
25 1 -12.8282 13.8858 10.4025
26 1 -12.2874 14.6305 10.2449
27 1 -11.5527 15.2176 10.0701
28 1 -10.8718 15.7552 9.74033
29 1 -10.005 15.9603 9.46589
30 1 -9.19886 16.3351 9.13898
31 1 -8.36817 16.7637 8.82828
32 1 -7.66149 17.281 8.70945
ITEM: TIMESTEP
1650000
ITEM: NUMBER OF ATOMS
32
ITEM: BOX BOUNDS mm mm mm
-2.8921163514474198e+01 1.6000000000000000e+01
-1.6000000000000000e+01 1.8919520097893024e+01
-1.6000000000000000e+01 1.6000000000000000e+01
ITEM: ATOMS id type x y z
1 1 -27.904 18.6632 8.63122
2 1 -28.466 18.508 9.36693
3 1 -28.9366 18.2638 10.2264
4 1 -28.9516 17.8677 11.1164
5 1 -28.3753 17.2006 11.4349
6 1 -27.6117 16.8916 11.8773
7 1 -27.0283 16.3171 12.2929
8 1 -26.4701 15.8037 12.8577
9 1 -25.9239 15.1841 13.3275
10 1 -25.1858 14.6619 13.5592
11 1 -24.3788 14.275 13.7778
12 1 -23.4734 13.9647 13.9318
13 1 -22.5711 14.0732 14.1025
14 1 -21.7354 14.2036 14.5153
15 1 -20.8047 14.4146 14.6099
16 1 -19.9716 14.7934 14.7568
17 1 -19.0217 14.7632 14.5971
18 1 -18.2118 14.8054 14.1221
19 1 -17.4609 14.7317 13.5935
20 1 -16.6863 14.3638 13.1787
21 1 -16.0767 13.9038 12.7174
22 1 -15.4969 13.5763 11.9708
23 1 -14.9894 13.2512 11.2843
24 1 -14.4743 13.0561 10.5311
25 1 -13.9288 12.5887 9.92442
26 1 -13.6865 12.1433 9.14074
27 1 -13.2424 11.3546 8.78868
28 1 -13.0278 10.4597 8.56429
29 1 -13.0524 9.47982 8.53496
30 1 -13.2606 8.55059 8.5735
31 1 -13.1837 7.56868 8.58446
32 1 -13.4955 6.70703 8.69917
ITEM: TIMESTEP
1660000
ITEM: NUMBER OF ATOMS
32
ITEM: BOX BOUNDS mm mm mm
-2.5969378091056591e+01 1.6000000000000000e+01
-1.6000000000000000e+01 1.7372950193208652e+01
-1.6000000000000000e+01 1.6000000000000000e+01
ITEM: ATOMS id type x y z
1 1 -26.2298 16.8832 8.60236
2 1 -25.3628 16.5516 8.8738
3 1 -24.7172 16.092 9.37929
4 1 -23.9807 15.5633 9.76253
5 1 -23.2864 15.0651 10.1574
6 1 -22.7862 14.2979 10.4447
7 1 -22.3576 13.4532 10.3143
8 1 -21.8877 12.6286 10.3576
9 1 -21.0017 12.3521 10.6066
10 1 -20.1457 12.3902 11.0882
11 1 -19.2938 12.2933 11.5036
12 1 -18.6374 12.5896 12.0992
13 1 -17.9889 12.7356 12.71
14 1 -17.3553 13.217 13.2509
15 1 -16.8671 13.9906 13.4935
16 1 -16.6124 14.8677 13.8262
17 1 -16.0495 15.6674 14.1102
18 1 -15.4717 16.3732 14.331
19 1 -14.6474 16.9181 14.4039
20 1 -13.9392 17.2587 13.9131
21 1 -13.1422 17.2836 13.3179
22 1 -12.3377 17.3564 12.8289
23 1 -11.5613 16.9131 12.5816
24 1 -11.0129 16.4025 12.0671
25 1 -10.245 15.8388 11.9921
26 1 -9.69728 15.1842 12.1562
27 1 -8.92303 14.6957 12.2879
28 1 -8.14558 14.2413 12.4511
29 1 -7.36298 13.8727 12.8613
30 1 -6.87331 13.1321 13.2362
31 1 -6.27823 12.4116 13.4555
32 1 -5.70823 11.6977 13.1574
ITEM: TIMESTEP
1670000
ITEM: NUMBER OF ATOMS
32
ITEM: BOX BOUNDS mm mm mm
-2.9311721572832386e+01 1.6000000000000000e+01
-1.6000000000000000e+01 1.6459418152623204e+01
-1.6000000000000000e+01 1.6724263964633654e+01
ITEM: ATOMS id type x y z
1 1 -29.2323 13.0778 14.2951
2 1 -28.4011 12.9117 14.7461
3 1 -27.4627 12.8679 14.695
4 1 -26.5466 12.7409 14.9172
5 1 -25.6033 12.8913 14.8887
6 1 -24.6632 13.1476 14.9396
7 1 -23.783 13.3209 15.0115
8 1 -22.861 13.56 14.9317
9 1 -21.9036 13.8015 15.0061
10 1 -21.1016 14.2109 14.9585
11 1 -20.2505 14.4605 14.7936
12 1 -19.3963 14.6181 14.6101
13 1 -18.4202 14.6331 14.563
14 1 -17.4915 14.7075 14.3512
15 1 -16.6465 14.7439 13.9556
16 1 -15.9564 14.3819 13.4029
17 1 -15.0922 14.1861 13.1372
18 1 -14.191 14.0139 12.8483
19 1 -13.3827 14.1273 12.3439
20 1 -12.4883 14.2626 12.1061
21 1 -11.5342 14.2085 12.1287
22 1 -10.648 14.2745 12.4361
23 1 -9.7431 14.2391 12.7951
24 1 -9.10515 14.5759 13.4732
25 1 -8.57782 15.0748 14.1607
26 1 -7.91211 15.7511 14.4279
27 1 -7.10351 16.2067 14.7094
28 1 -6.24627 16.293 15.2028
29 1 -5.57432 16.627 15.7494
30 1 -4.6707 16.4382 16.0028
31 1 -3.85148 16.0371 16.2779
32 1 -3.32202 15.4265 16.6854
ITEM: TIMESTEP
1680000
ITEM: NUMBER OF ATOMS
32
ITEM: BOX BOUNDS mm mm mm
-3.2328965793854707e+01 1.6000000000000000e+01
-1.6000000000000000e+01 1.7387422735987958e+01
-1.6000000000000000e+01 1.7038737194220257e+01
ITEM: ATOMS id type x y z
1 1 -32.0645 6.5459 16.9491
2 1 -31.7039 6.73325 16.1618
3 1 -31.3986 7.28365 15.4515
4 1 -31.0176 7.91073 14.8819
5 1 -30.3703 8.45511 14.6185
6 1 -29.613 8.86719 14.9541
7 1 -29.0219 9.52773 15.2109
8 1 -28.3274 9.9308 15.6639
9 1 -27.5804 10.3618 15.9981
10 1 -27.0179 11.0705 16.2898
11 1 -26.2827 11.6363 16.4724
12 1 -25.4963 12.1842 16.5678
13 1 -24.7527 12.8334 16.4641
14 1 -23.8497 13.0857 16.2186
15 1 -22.9815 13.2105 16.0116
16 1 -22.0876 13.1654 15.763
17 1 -21.2509 13.188 15.4674
18 1 -20.3605 12.9345 15.2837
19 1 -19.444 12.8441 15.3433
20 1 -18.4446 12.8622 15.3427
21 1 -17.6183 12.8592 14.977
22 1 -16.7849 12.9526 14.5299
23 1 -15.863 12.8833 14.3416
24 1 -14.9117 12.949 14.3594
25 1 -13.9434 12.9828 14.4302
26 1 -13.0861 13.3561 14.4112
27 1 -12.5052 14.0618 14.1633
28 1 -12.133 14.8924 14.3145
29 1 -11.7299 15.7424 14.4595
30 1 -11.084 16.2792 14.8462
31 1 -10.3928 16.8811 15.1526
32 1 -9.57921 17.3848 15.4787
ITEM: TIMESTEP
1690000
ITEM: NUMBER OF ATOMS
32
ITEM: BOX BOUNDS mm mm mm
-2.7944703326596475e+01 1.6000000000000000e+01
-1.6000000000000000e+01 1.6000000000000000e+01
-1.6000000000000000e+01 2.2374093343671614e+01
ITEM: ATOMS id type x y z
1 1 -28.0321 6.39687 21.77
2 1 -27.4005 6.92675 21.3159
3 1 -26.5125 7.22671 21.0695
4 1 -25.7088 7.38007 20.6587
5 1 -25.1518 7.79255 19.987
6 1 -24.3761 7.93992 19.4842
7 1 -23.5332 8.09746 19.0864
8 1 -22.9861 8.35816 18.3676
9 1 -22.5851 8.67363 17.5452
10 1 -22.2517 8.77758 16.6857
11 1 -22.1529 8.62026 15.7166
12 1 -22.0625 8.41196 14.8233
13 1 -21.6973 8.4333 13.9259
14 1 -21.3155 8.57239 13.0778
15 1 -20.9486 8.92436 12.2023
16 1 -20.6077 9.37207 11.4275
17 1 -20.3125 10.0733 10.885
18 1 -19.8435 10.8608 10.5526
19 1 -19.4402 11.6661 10.1983
20 1 -19.2888 12.3291 9.61193
21 1 -18.8228 12.9768 9.09636
22 1 -18.5054 13.6217 8.49913
23 1 -17.756 13.9986 8.12951
24 1 -16.8857 14.3312 8.0753
25 1 -16.0856 14.2556 7.65926
26 1 -15.3779 14.1437 7.04163
27 1 -14.9569 14.2078 6.1808
28 1 -14.8042 14.554 5.27262
29 1 -14.6292 14.839 4.39264
30 1 -14.253 15.125 3.58807
31 1 -13.6382 15.5053 2.96053
32 1 -12.8884 15.7729 2.45318
ITEM: TIMESTEP
1700000
ITEM: NUMBER OF ATOMS
32
ITEM: BOX BOUNDS mm mm mm
-2.5307544587504289e+01 1.6000000000000000e+01
-1.6000000000000000e+01 1.6000000000000000e+01
-1.6000000000000000e+01 1.6000000000000000e+01
ITEM: ATOMS id type x y z
1 1 -23.366 0.467511 14.5252
2 1 -24.0558 1.00246 14.8622
3 1 -24.4837 1.68115 15.2867
4 1 -24.4389 2.63276 15.2408
5 1 -24.6109 3.59889 15.1043
6 1 -24.8485 4.46119 15.3316
7 1 -25.1471 5.33854 15.5697
8 1 -25.1906 6.2386 15.2645
9 1 -25.0479 7.17518 15.05
10 1 -25.3237 8.06418 14.856
11 1 -25.2755 8.88896 14.4362
12 1 -25.1185 9.4924 13.7482
13 1 -24.9446 10.1798 13.1593
14 1 -24.636 10.9696 12.8214
15 1 -24.1332 11.4397 12.2085
16 1 -23.671 11.9408 11.6094
17 1 -23.1099 12.5369 11.151
18 1 -22.2773 12.8934 10.8434
19 1 -21.3883 13.2392 10.6341
20 1 -20.5347 13.6913 10.5325
21 1 -19.8243 13.8807 10.0017
22 1 -19.2688 14.2107 9.362
23 1 -19.0955 14.5799 8.54027
24 1 -18.492 14.7028 7.89955
25 1 -18.1839 14.67 6.99862
26 1 -18.0238 14.5353 6.10144
27 1 -17.7717 14.0545 5.37536
28 1 -17.5025 13.6394 4.62674
29 1 -17.0829 13.2332 3.84077
30 1 -16.3408 13.0351 3.19752
31 1 -15.6482 13.0908 2.60144
32 1 -14.9175 13.1781 1.98722
ITEM: TIMESTEP
1710000
ITEM: NUMBER OF ATOMS
32
ITEM: BOX BOUNDS mm mm mm
-2.8075067716482803e+01 1.6000000000000000e+01
-1.6000000000000000e+01 1.6000000000000000e+01
-1.6000000000000000e+01 1.6000000000000000e+01
ITEM: ATOMS id type x y z
1 1 -27.8407 5.73751 11.5746
2 1 -28.0249 6.53979 11.9551
3 1 -28.0697 7.36922 12.3652
4 1 -28.0908 8.32482 12.5781
5 1 -27.9445 9.26342 12.6758
6 1 -28.0557 10.2802 12.5729
7 1 -27.6389 11.1459 12.5213
8 1 -27.4407 12.022 12.4937
9 1 -26.8483 12.6729 12.8287
10 1 -26.3243 13.4069 12.9028
11 1 -25.4215 13.7124 12.7322
12 1 -24.6946 13.6899 12.094
13 1 -24.2527 13.7299 11.2781
14 1 -23.732 13.7452 10.4274
15 1 -23.0374 13.8177 9.72782
16 1 -22.3045 14.0656 9.2077
17 1 -21.561 13.7787 8.66971
18 1 -20.6738 13.8149 8.33651
19 1 -19.8408 13.8618 7.82809
20 1 -19.1171 13.9318 7.23581
21 1 -18.347 13.6553 6.74161
22 1 -18.0042 12.9205 6.15149
23 1 -17.4658 12.5634 5.45086
24 1 -16.945 12.1917 4.68576
25 1 -16.4262 11.7518 4.02955
26 1 -15.7947 11.4729 3.39961
27 1 -15.2298 11.1335 2.76501
28 1 -15.0303 10.4322 2.18513
29 1 -14.8803 9.72299 1.64194
30 1 -14.4568 8.91754 1.45673
31 1 -14.144 8.00572 1.24161
32 1 -13.6409 7.24393 1.4867
ITEM: TIMESTEP
1720000
ITEM: NUMBER OF ATOMS
32
ITEM: BOX BOUNDS mm mm mm
-3.4197607411020073e+01 1.6000000000000000e+01
-1.6000000000000000e+01 1.6000000000000000e+01
-1.6000000000000000e+01 1.6000000000000000e+01
ITEM: ATOMS id type x y z
1 1 -34.6304 12.7254 14.9055
2 1 -33.8646 13.3092 14.6885
3 1 -33.2984 13.843 14.0555
4 1 -32.7549 14.2541 13.4196
5 1 -32.3965 14.5182 12.5434
6 1 -31.8569 14.5686 11.7825
7 1 -31.5395 14.3354 10.9366
8 1 -31.034 14.0752 10.1861
9 1 -30.4787 13.6034 9.59272
10 1 -30.0674 13.4049 8.76864
11 1 -30.1213 12.9185 7.95651
12 1 -29.6276 12.6197 7.22022
13 1 -29.4645 12.3834 6.28913
14 1 -29.1652 12.1244 5.45021
15 1 -28.5825 11.8091 4.81378
16 1 -28.2032 11.2413 4.13594
17 1 -27.6669 10.6428 3.59901
18 1 -26.8844 10.3073 3.36566
19 1 -26.2901 9.59559 3.18583
20 1 -25.6315 8.92021 3.162
21 1 -24.812 8.47617 3.09385
22 1 -23.944 8.26259 2.94675
23 1 -23.0578 7.91573 3.03146
24 1 -22.3687 7.33232 3.1479
25 1 -21.4466 7.18932 3.16554
26 1 -20.5968 7.56031 3.14471
27 1 -19.667 7.57543 3.08548
28 1 -18.8535 7.9858 3.08538
29 1 -18.2638 8.78781 3.10863
30 1 -17.409 9.2701 3.04254
31 1 -16.5876 9.65946 3.23228
32 1 -15.7885 10.0764 3.27512
ITEM: TIMESTEP
1730000
ITEM: NUMBER OF ATOMS
32
ITEM: BOX BOUNDS mm mm mm
-3.4565598315448540e+01 1.6000000000000000e+01
-1.6000000000000000e+01 1.6000000000000000e+01
-1.6000000000000000e+01 1.6000000000000000e+01
ITEM: ATOMS id type x y z
1 1 -34.4347 8.99973 10.9973
2 1 -33.5284 9.33031 10.7213
3 1 -32.7356 9.78988 10.5069
4 1 -31.9431 10.1848 10.267
5 1 -31.3936 10.7544 9.6578
6 1 -30.9278 11.0782 8.91029
7 1 -30.5936 11.619 8.24116
8 1 -30.1844 11.7328 7.37359
9 1 -29.6878 11.4673 6.56964
10 1 -28.9385 11.4156 6.11892
11 1 -28.0815 11.4365 5.8262
12 1 -27.2171 11.4446 5.4983
13 1 -26.5992 11.4921 4.81275
14 1 -26.2806 11.7606 3.93679
15 1 -26.0041 12.2731 3.19826
16 1 -25.5327 12.5886 2.47384
17 1 -25.3624 12.903 1.60954
18 1 -25.3551 13.3846 0.784922
19 1 -25.4174 13.6936 -0.145513
20 1 -24.895 13.8603 -0.900215
21 1 -24.3725 13.8959 -1.67602
22 1 -23.6212 13.4503 -2.12917
23 1 -22.9831 13.1981 -2.82876
24 1 -22.3021 12.9713 -3.39638
25 1 -21.6025 12.8427 -4.10407
26 1 -20.9019 12.6343 -4.68093
27 1 -20.4467 12.2736 -5.48424
28 1 -19.9198 11.9546 -6.20911
29 1 -19.197 11.7354 -6.7654
30 1 -18.8108 11.4881 -7.59175
31 1 -18.2232 11.4051 -8.3307
32 1 -17.6018 10.8549 -8.80812
ITEM: TIMESTEP
1740000
ITEM: NUMBER OF ATOMS
32
ITEM: BOX BOUNDS mm mm mm
-2.9504374418544174e+01 1.6000000000000000e+01
-1.6000000000000000e+01 2.0393578526850110e+01
-1.6000000000000000e+01 1.6000000000000000e+01
ITEM: ATOMS id type x y z
1 1 -29.3664 10.7338 8.98696
2 1 -29.4477 11.4665 8.40758
3 1 -29.3814 12.2127 7.86817
4 1 -28.901 12.8097 7.39018
5 1 -28.2051 13.4518 7.35051
6 1 -27.7194 14.2601 7.52367
7 1 -27.0228 14.9133 7.76532
8 1 -26.4333 15.693 8.00404
9 1 -25.8516 16.4073 8.44641
10 1 -25.2795 17.1727 8.4565
11 1 -24.7296 17.8706 8.24822
12 1 -24.0402 18.4029 7.86142
13 1 -23.5231 18.7174 7.15422
14 1 -22.9845 18.65 6.34288
15 1 -22.7193 18.9263 5.49195
16 1 -22.4889 19.4595 4.72975
17 1 -22.0095 19.6856 3.85286
18 1 -21.5079 19.8892 3.12459
19 1 -21.141 20.237 2.32286
20 1 -20.6835 20.351 1.50669
21 1 -20.3344 20.4397 0.636336
22 1 -20.1775 20.3215 -0.264646
23 1 -19.9893 19.9844 -1.11428
24 1 -19.9979 19.5309 -1.96303
25 1 -19.9967 18.7941 -2.63171
26 1 -19.6341 18.067 -3.05651
27 1 -18.9522 17.3675 -2.97752
28 1 -18.1911 16.827 -2.75283
29 1 -17.4798 16.5254 -2.2192
30 1 -16.7611 16.3316 -1.55371
31 1 -16.0781 16.1183 -0.92846
32 1 -15.3778 16.0224 -0.339427
ITEM: TIMESTEP
1750000
ITEM: NUMBER OF ATOMS
32
ITEM: BOX BOUNDS mm mm mm
-2.7566645959245808e+01 1.6000000000000000e+01
-1.6000000000000000e+01 2.3965732864049425e+01
-1.6000000000000000e+01 1.6000000000000000e+01
ITEM: ATOMS id type x y z
1 1 -27.8388 16.3664 11.2926
2 1 -27.0053 16.6353 11.6407
3 1 -26.3777 16.952 12.3266
4 1 -25.9967 17.7203 12.6736
5 1 -25.2442 18.2841 12.8139
6 1 -24.4238 18.6685 13.0784
7 1 -23.8175 19.3673 13.1129
8 1 -23.0623 19.9431 13.0875
9 1 -22.5064 20.6866 12.8964
10 1 -21.8311 21.333 12.7572
11 1 -21.0191 21.63 12.3769
12 1 -20.2237 21.946 11.9718
13 1 -19.5789 21.8982 11.2307
14 1 -19.0732 21.4263 10.5847
15 1 -18.911 20.9886 9.79997
16 1 -18.733 21.0251 8.89743
17 1 -18.5223 21.0339 7.97125
18 1 -18.4156 21.1731 7.09736
19 1 -18.2173 21.6571 6.3485
20 1 -17.8914 22.1093 5.62484
21 1 -17.5298 22.4748 4.79917
22 1 -17.6312 22.9404 3.9691
23 1 -18.0517 23.1525 3.10164
24 1 -18.423 23.3375 2.30477
25 1 -18.4992 23.6045 1.44665
26 1 -18.8449 23.6062 0.552207
27 1 -18.7466 23.4086 -0.331694
28 1 -18.4304 23.2677 -1.20162
29 1 -18.2506 23.1365 -2.05967
30 1 -18.0102 22.8685 -3.00165
31 1 -17.5131 22.6718 -3.76777
32 1 -16.8904 22.6523 -4.50997
ITEM: TIMESTEP
1760000
ITEM: NUMBER OF ATOMS
32
ITEM: BOX BOUNDS mm mm mm
-2.2710491926368828e+01 1.6000000000000000e+01
-1.6000000000000000e+01 3.1413228102783815e+01
-1.6000000000000000e+01 1.6000000000000000e+01
ITEM: ATOMS id type x y z
1 1 -20.4873 9.21679 14.133
2 1 -19.9872 9.68084 13.4611
3 1 -19.7317 10.2776 12.8066
4 1 -19.5873 10.7338 12.0197
5 1 -19.9538 11.3388 11.4373
6 1 -20.2852 11.9833 10.8326
7 1 -20.4933 12.651 10.1744
8 1 -20.7401 13.3579 9.64654
9 1 -21.1247 14.1153 9.30388
10 1 -21.6599 14.8296 8.86516
11 1 -21.6194 15.5734 8.29167
12 1 -21.7599 16.2533 7.61443
13 1 -22.2204 16.873 7.04033
14 1 -22.4053 17.5081 6.42193
15 1 -22.5893 18.2218 5.82945
16 1 -22.5591 19.0989 5.44003
17 1 -22.6115 20.025 5.17066
18 1 -22.5973 20.8842 4.70235
19 1 -22.7106 21.5411 4.06538
20 1 -22.6338 21.98 3.21607
21 1 -22.4115 22.6368 2.56166
22 1 -22.0908 23.3525 2.09258
23 1 -21.9837 24.2426 1.7653
24 1 -21.9103 25.0074 1.28232
25 1 -21.5156 25.8154 0.954769
26 1 -20.784 26.4035 0.911392
27 1 -20.1276 27.006 0.686352
28 1 -19.6686 27.8686 0.666085
29 1 -19.3843 28.7669 0.951529
30 1 -19.187 29.6604 1.23587
31 1 -19.0511 30.53 1.26851
32 1 -18.975 31.3996 1.09299
ITEM: TIMESTEP
1770000
ITEM: NUMBER OF ATOMS
32
ITEM: BOX BOUNDS mm mm mm
-2.3157620518929491e+01 1.6000000000000000e+01
-1.6000000000000000e+01 2.6428909515510071e+01
-1.6000000000000000e+01 1.6000000000000000e+01
ITEM: ATOMS id type x y z
1 1 -19.0977 9.97703 7.62545
2 1 -19.9296 10.344 7.83225
3 1 -20.7249 10.8814 7.95013
4 1 -21.2242 11.616 7.84149
5 1 -21.6224 12.4638 7.71048
6 1 -21.8352 13.306 7.54506
7 1 -21.8824 14.2863 7.30423
8 1 -22.0275 15.0233 6.75082
9 1 -21.9891 15.9707 6.33168
10 1 -22.4212 16.7124 5.94971
11 1 -22.8741 17.3837 5.41791
12 1 -23.0763 17.8926 4.69409
13 1 -23.0286 18.3832 3.87606
14 1 -23.2032 18.9124 3.14361
15 1 -23.0626 19.6675 2.55768
16 1 -23.0774 20.5181 2.02348
17 1 -22.9464 21.3373 1.49202
18 1 -22.7748 22.0448 0.787001
19 1 -22.1805 22.6658 0.446182
20 1 -21.403 23.2014 0.169866
21 1 -20.5941 23.733 0.0360922
22 1 -19.888 24.3151 -0.0264059
23 1 -19.075 24.7877 0.18514
24 1 -18.266 25.2306 0.381326
25 1 -17.4292 25.4343 0.724609
26 1 -16.7223 25.4952 1.33134
27 1 -15.794 25.579 1.76328
28 1 -15.0056 25.4763 2.34038
29 1 -14.637 25.7931 3.13371
30 1 -14.3982 26.1895 3.95246
31 1 -13.8859 26.4467 4.68241
32 1 -13.1006 26.4489 5.20992
ITEM: TIMESTEP
1780000
ITEM: NUMBER OF ATOMS
32
ITEM: BOX BOUNDS mm mm mm
-2.8615528374515698e+01 1.6000000000000000e+01
-1.6000000000000000e+01 2.5951954031469874e+01
-1.6000000000000000e+01 1.6000000000000000e+01
ITEM: ATOMS id type x y z
1 1 -28.0271 8.95747 7.63822
2 1 -28.1152 9.3657 6.79352
3 1 -28.0194 9.7537 5.95975
4 1 -27.6547 10.5597 5.61376
5 1 -27.3195 11.3682 5.34316
6 1 -26.7652 12.0313 4.98327
7 1 -26.2913 12.8091 4.70382
8 1 -25.8473 13.5996 4.41582
9 1 -25.119 14.2288 4.6399
10 1 -24.2759 14.6141 4.66839
11 1 -23.3916 14.9311 4.41373
12 1 -22.6984 15.4086 4.86655
13 1 -22.2927 16.1272 5.20945
14 1 -21.7336 16.8091 5.4662
15 1 -20.9501 17.2182 5.75096
16 1 -20.2885 17.5933 6.25882
17 1 -19.6302 18.1785 6.49823
18 1 -18.9039 18.6696 6.87793
19 1 -18.2247 19.2862 6.73093
20 1 -17.4471 19.7433 6.62749
21 1 -16.6564 20.2169 6.78625
22 1 -15.8139 20.7005 6.71493
23 1 -15.2079 21.4044 6.30354
24 1 -14.7189 22.0463 5.86055
25 1 -14.1987 22.4616 5.23115
26 1 -13.7777 22.8701 4.51952
27 1 -13.1849 23.0391 3.7298
28 1 -12.6548 23.348 2.99625
29 1 -12.2522 23.8997 2.31581
30 1 -11.7859 24.4276 1.73533
31 1 -11.4435 25.2537 1.33137
32 1 -11.5309 25.9332 0.705671
ITEM: TIMESTEP
1790000
ITEM: NUMBER OF ATOMS
32
ITEM: BOX BOUNDS mm mm mm
-2.9224070560763121e+01 1.6000000000000000e+01
-1.6000000000000000e+01 2.5957675290598907e+01
-1.6000000000000000e+01 1.6000000000000000e+01
ITEM: ATOMS id type x y z
1 1 -29.1924 18.2907 5.21069
2 1 -28.9746 18.7318 6.01063
3 1 -28.5661 19.5984 6.26592
4 1 -28.0664 20.36 6.50807
5 1 -27.5533 21.1023 6.54248
6 1 -26.9653 21.8801 6.65243
7 1 -26.4347 22.6564 6.67551
8 1 -25.9404 23.5089 6.7227
9 1 -25.4962 24.3686 6.67038
10 1 -24.859 25.0236 6.6976
11 1 -24.0153 25.4938 6.52476
12 1 -23.1085 25.8057 6.37467
13 1 -22.2212 25.9289 6.32467
14 1 -21.3963 25.5594 6.24389
15 1 -20.5999 24.9619 5.98417
16 1 -19.8405 24.5541 5.62309
17 1 -18.9136 24.4544 5.24893
18 1 -18.0747 24.123 5.02774
19 1 -17.2238 24.0217 4.544
20 1 -16.5428 23.8405 3.89733
21 1 -15.9274 23.5444 3.26728
22 1 -15.2625 23.2224 2.65319
23 1 -14.566 22.8059 2.20808
24 1 -13.8563 22.3807 1.84355
25 1 -13.2675 21.8159 1.44688
26 1 -12.9001 21.1408 0.931478
27 1 -12.3049 20.5359 0.510351
28 1 -11.6799 19.9678 0.156671
29 1 -11.2054 19.1522 -0.0901309
30 1 -10.8298 18.2426 0.0284833
31 1 -10.5983 17.3398 0.253505
32 1 -10.308 16.5146 0.538074
ITEM: TIMESTEP
1800000
ITEM: NUMBER OF ATOMS
32
ITEM: BOX BOUNDS mm mm mm
-2.9832163306915373e+01 1.6000000000000000e+01
-1.6000000000000000e+01 2.4098277748766147e+01
-1.6000000000000000e+01 1.6000000000000000e+01
ITEM: ATOMS id type x y z
1 1 -29.6878 20.4705 4.30645
2 1 -29.0801 21.0371 4.82935
3 1 -28.4253 21.5341 5.34479
4 1 -27.9412 21.988 5.95721
5 1 -27.3737 22.4581 6.55042
6 1 -26.7876 23.1022 6.82764
7 1 -25.9407 23.5689 6.99574
8 1 -24.998 23.781 7.1774
9 1 -24.1718 23.5789 7.48638
10 1 -23.2937 23.3137 7.64301
11 1 -22.3642 23.3565 7.82123
12 1 -21.4841 23.1102 7.70591
13 1 -20.61 22.7984 7.67655
14 1 -19.9697 22.0876 7.6365
15 1 -19.2917 21.4315 7.41289
16 1 -18.5433 21.0256 6.98693
17 1 -17.744 20.5382 6.80425
18 1 -17.1069 20.0267 6.32291
19 1 -16.252 19.8439 5.91159
20 1 -15.4174 19.7423 5.49308
21 1 -14.5159 19.7964 5.46965
22 1 -13.647 19.5944 5.40637
23 1 -12.8377 19.4265 4.97046
24 1 -11.9125 19.4828 4.73064
25 1 -11.0285 19.8248 4.43602
26 1 -10.2066 20.2092 4.1808
27 1 -9.39975 20.607 4.06974
28 1 -8.64071 21.2879 4.05368
29 1 -8.10061 22.0009 3.68984
30 1 -7.51832 22.7837 3.58378
31 1 -6.90121 23.4843 3.45496
32 1 -6.1057 24.0042 3.27734
ITEM: TIMESTEP
1810000
ITEM: NUMBER OF ATOMS
32
ITEM: BOX BOUNDS mm mm mm
-2.7517581282885374e+01 1.6000000000000000e+01
-1.6000000000000000e+01 2.3323101345373264e+01
-1.6000000000000000e+01 1.6000000000000000e+01
ITEM: ATOMS id type x y z
1 1 -27.8964 22.2306 13.7268
2 1 -27.7178 21.6667 13.0182
3 1 -27.4961 21.2062 12.2188
4 1 -27.3693 20.8642 11.3208
5 1 -26.6444 20.7572 10.7915
6 1 -26.0103 20.5921 10.094
7 1 -25.4092 20.8666 9.42361
8 1 -24.9239 21.3255 8.78062
9 1 -24.309 21.8435 8.26578
10 1 -23.4206 21.9245 7.98001
11 1 -22.7846 21.9912 7.27702
12 1 -21.9835 21.945 6.84745
13 1 -21.0378 22.263 6.57086
14 1 -20.2233 22.7316 6.77179
15 1 -19.2608 22.712 6.81118
16 1 -18.4013 23.0537 6.7882
17 1 -17.4754 23.2825 6.70326
18 1 -16.5234 23.185 6.77113
19 1 -15.8339 22.5611 6.53043
20 1 -15.2577 22.002 5.99237
21 1 -14.6647 21.3324 5.61279
22 1 -13.9999 20.6715 5.59649
23 1 -13.2399 20.3364 5.24794
24 1 -12.6391 20.1825 4.58448
25 1 -11.8162 20.2506 4.2006
26 1 -10.9123 20.2842 3.98251
27 1 -10.0212 20.3014 4.30855
28 1 -9.24073 20.6431 4.69682
29 1 -8.43344 20.3696 5.15009
30 1 -7.74488 19.9547 5.59602
31 1 -7.3583 19.2744 6.1579
32 1 -6.73829 18.719 6.55973
ITEM: TIMESTEP
1820000
ITEM: NUMBER OF ATOMS
32
ITEM: BOX BOUNDS mm mm mm
-2.2201397571586291e+01 1.6000000000000000e+01
-1.6000000000000000e+01 3.2392056630239658e+01
-1.6000000000000000e+01 1.6000000000000000e+01
ITEM: ATOMS id type x y z
1 1 -21.1857 32.3868 12.346
2 1 -21.8481 32.008 11.804
3 1 -22.2496 31.3392 11.3428
4 1 -22.1038 30.5955 10.7916
5 1 -21.9147 29.8971 10.1279
6 1 -21.5922 29.1144 9.67016
7 1 -21.2602 28.3459 9.24282
8 1 -20.8474 27.7214 8.65174
9 1 -20.4194 26.946 8.27506
10 1 -20.0831 26.3355 7.59279
11 1 -19.9735 25.6766 6.9044
12 1 -19.6824 25.0676 6.22741
13 1 -19.3881 24.3533 5.66509
14 1 -19.0645 23.4943 5.6061
15 1 -18.6156 22.6731 5.78967
16 1 -17.8814 22.0612 5.92936
17 1 -17.192 21.4502 6.2397
18 1 -16.5298 21.079 6.78734
19 1 -15.7345 20.8233 7.20433
20 1 -14.9534 20.5305 7.68981
21 1 -14.1909 20.4873 8.19437
22 1 -13.3225 20.3198 8.62354
23 1 -12.42 20.3632 8.97326
24 1 -11.5149 20.5839 9.06076
25 1 -10.6245 20.9171 9.00562
26 1 -9.88249 21.4722 8.87513
27 1 -9.1746 22.1551 8.64054
28 1 -8.38504 22.6505 8.39007
29 1 -7.56521 23.0569 8.27656
30 1 -6.78336 23.5512 8.0351
31 1 -5.94822 23.9525 7.89647
32 1 -5.01389 24.3048 7.97748
ITEM: TIMESTEP
1830000
ITEM: NUMBER OF ATOMS
32
ITEM: BOX BOUNDS mm mm mm
-1.9651414923805600e+01 1.6000000000000000e+01
-1.6000000000000000e+01 3.4573407550265166e+01
-1.6000000000000000e+01 1.6000000000000000e+01
ITEM: ATOMS id type x y z
1 1 -19.4699 34.7763 11.5105
2 1 -19.0086 34.077 10.9937
3 1 -18.6213 33.4149 10.3911
4 1 -18.2443 32.6531 9.95299
5 1 -17.7417 32.1943 9.29909
6 1 -17.4246 31.5483 8.6978
7 1 -17.2379 31.13 7.91051
8 1 -17.1639 30.4281 7.27306
9 1 -17.1966 29.5219 6.91358
10 1 -17.3633 28.7156 6.46011
11 1 -17.6975 27.8455 6.10981
12 1 -18.0664 27.0743 5.67836
13 1 -17.9325 26.1739 5.52375
14 1 -17.8655 25.4856 4.8356
15 1 -17.6771 24.9102 4.1354
16 1 -17.3897 24.352 3.46226
17 1 -16.8626 23.6909 2.96335
18 1 -16.184 22.9991 2.87644
19 1 -15.4323 22.6938 2.34883
20 1 -14.7776 22.3818 1.75983
21 1 -13.9407 22.267 1.29356
22 1 -13.085 22.333 0.81347
23 1 -12.2932 22.3538 0.273121
24 1 -11.392 22.1695 -0.00431187
25 1 -10.525 21.8981 -0.398312
26 1 -9.67952 22.0043 -0.808923
27 1 -8.83009 22.3191 -1.13251
28 1 -7.97569 22.4998 -1.43311
29 1 -7.06131 22.6706 -1.58161
30 1 -6.13177 22.8827 -1.72749
31 1 -5.27223 22.8888 -1.99431
32 1 -4.47256 22.6993 -2.44844
ITEM: TIMESTEP
1840000
ITEM: NUMBER OF ATOMS
32
ITEM: BOX BOUNDS mm mm mm
-1.8166778059620498e+01 1.6000000000000000e+01
-1.6000000000000000e+01 3.7950588164520411e+01
-1.6000000000000000e+01 1.6000000000000000e+01
ITEM: ATOMS id type x y z
1 1 -9.32614 37.8072 14.5783
2 1 -10.0533 37.355 14.138
3 1 -10.7471 36.7274 13.9067
4 1 -11.199 35.9106 13.64
5 1 -11.8529 35.437 13.152