print ">>>>>>>>>>>>>>>>>>>>>>>>>>>>>>>>>>>>>>>>>>>>>>>>>>>>>>>>>>>>>>>>>>>>>>>>>>>>>>>N: 32 K: 0.5"
>>>>>>>>>>>>>>>>>>>>>>>>>>>>>>>>>>>>>>>>>>>>>>>>>>>>>>>>>>>>>>>>>>>>>>>>>>>>>>>N: 32 K: 0.5
read_restart restart._N32_k0.5.dat
Reading restart file ...
  restart file = 23 Jun 2022, LAMMPS = 23 Jun 2022
  restoring atom style angle from restart
  orthogonal box = (-16 -16 -17.80886) to (16 16 16)
  1 by 2 by 2 MPI processor grid
  restoring pair style lj/cut from restart
  restoring bond style fene from restart
  restoring angle style cosine from restart
  32 atoms
  31 bonds
  30 angles
Finding 1-2 1-3 1-4 neighbors ...
  special bond factors lj:    0        1        1       
  special bond factors coul:  0        1        1       
     2 = max # of 1-2 neighbors
     6 = max # of special neighbors
  special bonds CPU = 0.000 seconds
  read_restart CPU = 0.001 seconds
# sets up computes needed for continuing a run from a restart file

# dumps and fixes, dumps are already handled in the python file



###

# Set up fixes - as these are not stored in the restart files

###

variable seed equal 315987     # a seed for the thermostat

fix 1 all nve                             # NVE integrator

fix 2 all langevin   1.0 1.0 1.0 ${seed}  # langevin thermostat

fix 2 all langevin   1.0 1.0 1.0 315987  


##### Calculate thermodynamics to write ###################################

variable t equal step

variable mytemp equal temp

variable myepair equal epair

############################################################################



############################################################################

#### Set up a compute for R_g

compute myRG2compute all gyration

#### and write it to a file

variable RG2 equal c_myRG2compute

############################################################################



##### Output thermodynamic info  (temperature, energy, pressure, etc.) #####

thermo 10000

thermo_style   custom   step  temp  epair  emol pe ke etotal  press  vol

############################################################################

fix mythermofile all print 10000 "$t ${mytemp} ${myepair}" file thermo_output_N32_k0.5.dat screen no
fix myRG2file all print 10000 "$t ${RG2}" file radius_of_gyration_squared_N32_k0.5.dat screen no
dump dum2 all custom 10000 dump_N32_k0.5.dynamics id type x y z
dump_modify dum2  sort id
run 500000
Generated 0 of 0 mixed pair_coeff terms from geometric mixing rule
Neighbor list info ...
  update every 1 steps, delay 10 steps, check yes
  max neighbors/atom: 2000, page size: 100000
  master list distance cutoff = 1.4224615
  ghost atom cutoff = 3.55
  binsize = 0.71123076, bins = 45 45 48
  1 neighbor lists, perpetual/occasional/extra = 1 0 0
  (1) pair lj/cut, perpetual
      attributes: half, newton on
      pair build: half/bin/newton
      stencil: half/bin/3d
      bin: standard
Per MPI rank memory allocation (min/avg/max) = 6.578 | 6.678 | 6.974 Mbytes
   Step          Temp          E_pair         E_mol          PotEng         KinEng         TotEng         Press          Volume    
   1440000   1.270979       0              30.442004      30.442004      1.8468914      32.288895     -0.0020156286   34620.458    
   1450000   1.211972       0.00048821514  30.308203      30.308692      1.7611468      32.069838      0.0028150001   36197.69     
   1460000   1.0039266      0.047439147    30.768889      30.816328      1.4588309      32.275159      0.0012214613   34870.252    
   1470000   1.2129383      0.020188584    30.760704      30.780893      1.7625509      32.543444      0.00048502493  42905.884    
   1480000   0.98229318     0.017390368    30.656012      30.673403      1.4273948      32.100797     -0.00039404358  42244.466    
   1490000   0.86939678     0.00056428867  30.596873      30.597437      1.2633422      31.86078      -0.0017818096   43238.127    
   1500000   0.94018104     0.04170634     30.758466      30.800173      1.3662006      32.166373     -0.0011315569   45477.07     
   1510000   1.0561991      0              30.77192       30.77192       1.5347893      32.306709      0.00072598923  43791.441    
   1520000   1.1175914      0.022062423    30.385309      30.407371      1.6239999      32.031371      0.00078341968  42341.358    
   1530000   1.1378046      0.008694828    30.904096      30.91279       1.6533723      32.566163     -0.002894898    42929.707    
   1540000   1.1074699      0              30.740906      30.740906      1.6092922      32.350199      0.0015551405   45205.123    
   1550000   1.2103369      0.054204089    30.692655      30.746859      1.7587709      32.50563       0.00058051475  39111.056    
   1560000   1.162815       0.049239605    30.656228      30.705468      1.6897155      32.395183      0.00091741979  40802.451    
   1570000   1.0111631      1.9974938e-05  30.408279      30.408299      1.4693464      31.877645     -0.0017244502   42183.251    
   1580000   1.2148606      0.0014178571   30.572769      30.574187      1.7653443      32.339531     -0.0020063687   46007.571    
   1590000   1.1958395      0.007624487    30.586058      30.593682      1.7377043      32.331387     -0.00030799021  50655.216    
   1600000   0.81795051     0.0032904578   30.348348      30.351638      1.1885843      31.540223      0.00032869629  44421.092    
   1610000   1.073747       0              30.558294      30.558294      1.5602885      32.118582     -0.0027767174   46424.849    
   1620000   0.92298454     0.0042886694   30.800263      30.804552      1.3412119      32.145764     -0.0032029847   48033.917    
   1630000   0.95407839     0.0077347952   30.511078      30.518813      1.3863952      31.905208      0.0030043007   45133.907    
   1640000   0.94781041     0.041445865    30.403081      30.444527      1.377287       31.821814      0.00042288292  38026.908    
   1650000   0.91923648     0              30.521309      30.521309      1.3357655      31.857075      0.00094263831  40859.838    
   1660000   1.1495302      0              30.689705      30.689705      1.670411       32.360116      0.0014179559   35813.156    
   1670000   0.98981257     0.0013881351   30.772016      30.773404      1.4383214      32.211726     -0.00057843121  33853.859    
   1680000   1.2225677      0.0012116348   30.657255      30.658467      1.7765437      32.43501      -0.00076990895  37084.702    
   1690000   1.0675765      0.0096611103   30.812202      30.821863      1.5513221      32.373185      0.0046750225   35216.487    
   1700000   0.91010425     0.0068985595   30.742666      30.749564      1.3224952      32.07206       0.0011304925   36146.309    
   1710000   1.019362       0.0052956563   30.278576      30.283872      1.4812604      31.765132     -0.0011478438   44160.186    
   1720000   0.83219424     0.0069090755   30.526464      30.533374      1.2092823      31.742656     -0.0039643343   38875.254    
   1730000   1.0768673      0              30.579097      30.579097      1.5648228      32.14392       0.0021706638   38039.449    
   1740000   0.93926256     0.0072720966   30.738832      30.746105      1.3648659      32.11097      -0.0023795948   40819.026    
   1750000   1.0950555      0.0045196443   30.534905      30.539425      1.5912525      32.130677      0.00082386536  42230.452    
   1760000   1.2195539      6.0419029e-05  30.292566      30.292626      1.7721643      32.064791      0.00091827354  39837.309    
   1770000   0.83290316     0.026320945    30.675751      30.702072      1.2103124      31.912384     -0.00081483697  43935.681    
   1780000   0.85921949     0              30.560662      30.560662      1.2485533      31.809215     -0.00080864275  42053.363    
   1790000   1.1525044      0              30.633654      30.633654      1.6747329      32.308387      0.0037824463   41838.487    
   1800000   1.3272054      0              30.770539      30.770539      1.9285953      32.699134      0.00056421652  42211.325    
   1810000   1.1056578      0              30.324732      30.324732      1.606659       31.931391      0.0003756731   40741.728    
   1820000   0.90597474     0.037321734    30.791693      30.829015      1.3164945      32.14551      -0.00014511097  37275.814    
   1830000   0.98655149     0.045668261    30.681715      30.727383      1.4335826      32.160965      0.0014906321   40850.59     
   1840000   0.9652062      0.000647695    30.56762       30.568268      1.4025653      31.970833     -0.00022995611  48402.569    
   1850000   1.309822       0.010935512    30.590717      30.601652      1.9033351      32.504987      0.00054414863  50041.478    
   1860000   0.99593406     0.0026316563   30.545892      30.548523      1.4472167      31.99574       0.0020813239   46336.316    
   1870000   1.0670707      0.0068983755   30.569268      30.576167      1.5505872      32.126754      0.00049579924  49766.135    
   1880000   1.0299658      0.039062978    30.63089       30.669953      1.4966691      32.166622      0.0011816014   46681.588    
   1890000   1.0699132      0.00044819022  30.661727      30.662175      1.5547176      32.216893     -0.00057718983  51526.857    
   1900000   0.77189826     0.0009004248   30.402008      30.402908      1.1216647      31.524573     -0.00059388788  48088.567    
   1910000   0.91544603     0.0072269093   30.432909      30.440136      1.3302575      31.770394     -4.8866065e-05  48138.626    
   1920000   0.94264992     0.0085343822   30.76985       30.778385      1.3697882      32.148173     -0.0012336828   44618.474    
   1930000   1.1441052      0.028809257    30.594854      30.623663      1.6625278      32.286191     -0.0017083451   53048.59     
   1940000   0.76344656     0.0079772234   30.432505      30.440482      1.1093833      31.549865      0.00010258304  51365.527    
Loop time of 5.78489 on 4 procs for 500000 steps with 32 atoms

Performance: 74677360.402 tau/day, 86432.130 timesteps/s
100.0% CPU use with 4 MPI tasks x 1 OpenMP threads

MPI task timing breakdown:
Section |  min time  |  avg time  |  max time  |%varavg| %total
---------------------------------------------------------------
Pair    | 0.018811   | 0.047077   | 0.12364    |  20.4 |  0.81
Bond    | 0.022673   | 0.18866    | 0.6479     |  61.1 |  3.26
Neigh   | 3.2127     | 3.2215     | 3.2299     |   0.4 | 55.69
Comm    | 0.39663    | 0.51424    | 0.68573    |  17.1 |  8.89
Output  | 0.0060945  | 0.0061682  | 0.0062043  |   0.1 |  0.11
Modify  | 0.068773   | 0.2675     | 0.81664    |  61.4 |  4.62
Other   |            | 1.54       |            |       | 26.62

Nlocal:              8 ave          32 max           0 min
Histogram: 3 0 0 0 0 0 0 0 0 1
Nghost:              0 ave           0 max           0 min
Histogram: 4 0 0 0 0 0 0 0 0 0
Neighs:              2 ave           8 max           0 min
Histogram: 3 0 0 0 0 0 0 0 0 1

Total # of neighbors = 8
Ave neighs/atom = 0.25
Ave special neighs/atom = 1.9375
Neighbor list builds = 49999
Dangerous builds = 49998
write_restart 	restart._N32_k0.5.dat
System init for write_restart ...
Generated 0 of 0 mixed pair_coeff terms from geometric mixing rule
Total wall time: 0:00:05
