print ">>>>>>>>>>>>>>>>>>>>>>>>>>>>>>>>>>>>>>>>>>>>>>>>>>>>>>>>>>>>>>>>>>>>>>>>>>>>>>>N: 32 K: 0.5"
>>>>>>>>>>>>>>>>>>>>>>>>>>>>>>>>>>>>>>>>>>>>>>>>>>>>>>>>>>>>>>>>>>>>>>>>>>>>>>>N: 32 K: 0.5
read_restart restart._N32_k0.5.dat
Reading restart file ...
  restart file = 23 Jun 2022, LAMMPS = 23 Jun 2022
  restoring atom style angle from restart
  orthogonal box = (-23.097329 -16 -30.709926) to (16 40.49185 16)
  1 by 2 by 2 MPI processor grid
  restoring pair style lj/cut from restart
  restoring bond style fene from restart
  restoring angle style cosine from restart
  32 atoms
  31 bonds
  30 angles
Finding 1-2 1-3 1-4 neighbors ...
  special bond factors lj:    0        1        1       
  special bond factors coul:  0        1        1       
     2 = max # of 1-2 neighbors
     6 = max # of special neighbors
  special bonds CPU = 0.000 seconds
  read_restart CPU = 0.001 seconds
# sets up computes needed for continuing a run from a restart file

# dumps and fixes, dumps are already handled in the python file



###

# Set up fixes - as these are not stored in the restart files

###

variable seed equal 315987     # a seed for the thermostat

fix 1 all nve                             # NVE integrator

fix 2 all langevin   1.0 1.0 1.0 ${seed}  # langevin thermostat

fix 2 all langevin   1.0 1.0 1.0 315987  


##### Calculate thermodynamics to write ###################################

variable t equal step

variable mytemp equal temp

variable myepair equal epair

############################################################################



############################################################################

#### Set up a compute for R_g

compute myRG2compute all gyration

#### and write it to a file

variable RG2 equal c_myRG2compute

############################################################################



##### Output thermodynamic info  (temperature, energy, pressure, etc.) #####

thermo 10000

thermo_style   custom   step  temp  epair  emol pe ke etotal  press  vol

############################################################################



###

# modify neighborlist behaviour since this too is not recorded

###

neighbor 1.9 bin

neigh_modify every 1 delay 1 check yes

fix mythermofile all print 10000 "$t ${mytemp} ${myepair}" file thermo_output_N32_k0.5.dat screen no
fix myRG2file all print 10000 "$t ${RG2}" file radius_of_gyration_squared_N32_k0.5.dat screen no
dump dum2 all custom 10000 dump_N32_k0.5.dynamics id type x y z
dump_modify dum2  sort id
run 1500000
Generated 0 of 0 mixed pair_coeff terms from geometric mixing rule
Neighbor list info ...
  update every 1 steps, delay 1 steps, check yes
  max neighbors/atom: 2000, page size: 100000
  master list distance cutoff = 3.0224615
  ghost atom cutoff = 3.55
  binsize = 1.5112308, bins = 26 38 31
  1 neighbor lists, perpetual/occasional/extra = 1 0 0
  (1) pair lj/cut, perpetual
      attributes: half, newton on
      pair build: half/bin/newton
      stencil: half/bin/3d
      bin: standard
Per MPI rank memory allocation (min/avg/max) = 6.391 | 6.491 | 6.788 Mbytes
   Step          Temp          E_pair         E_mol          PotEng         KinEng         TotEng         Press          Volume    
   2440000   0.89083395     0.0027075968   30.597063      30.599771      1.2944931      31.894264     -0.00061873534  103173.63    
   2450000   0.86103132     0.076038848    30.624855      30.700894      1.2511861      31.95208       0.00047539296  89367.669    
   2460000   0.96174492     0.00025492623  30.621317      30.621571      1.3975356      32.019107     -0.00049071498  89694.425    
   2470000   0.85439299     0.016757411    30.563369      30.580126      1.2415398      31.821666      0.00027824849  104765.83    
   2480000   1.0057089      0.0064868459   30.384393      30.39088       1.4614208      31.8523        5.4314804e-05  124890.19    
   2490000   1.104454       2.188034e-06   30.478793      30.478795      1.6049097      32.083705     -0.00018171963  130198.04    
   2500000   1.0249534      0              30.535966      30.535966      1.4893854      32.025351     -0.00064864535  129373.26    
   2510000   0.87895634     0.053788191    30.739032      30.79282       1.2772334      32.070053      0.00015794434  128587.41    
   2520000   0.92194727     0.050141488    30.627031      30.677173      1.3397046      32.016877     -0.00076412238  127490.49    
   2530000   0.9288275      0.0066471      30.617499      30.624146      1.3497025      31.973849     -0.00082704722  136766.91    
   2540000   0.92138591     0.046555682    30.80436       30.850916      1.3388889      32.189805      3.801855e-05   121702.27    
   2550000   1.4636492      0.015325789    30.603468      30.618794      2.1268653      32.745659      5.8501501e-05  143903.18    
   2560000   1.2834398      0.02424584     30.621883      30.646129      1.8649985      32.511127     -0.00018164769  154043.61    
   2570000   1.0543788      0.013834401    30.412987      30.426822      1.5321442      31.958966      1.7161765e-05  149958.88    
   2580000   0.97046787     0.013143861    30.630187      30.64333       1.4102111      32.053542      0.0004146128   145571.6     
   2590000   1.1131451      0              30.535091      30.535091      1.617539       32.15263       0.00037217814  146492.06    
   2600000   0.92688146     0.071573672    30.453351      30.524925      1.3468746      31.871799      0.00037797988  127914.32    
   2610000   1.0911468      0.001247969    30.745293      30.746541      1.5855726      32.332114     -0.00051125586  115358.53    
   2620000   1.1704734      0.050282842    30.274475      30.324757      1.7008442      32.025602     -0.00030680498  122300.78    
   2630000   0.88387005     0.0029036366   30.785663      30.788567      1.2843737      32.072941     -0.00072748765  91294.289    
   2640000   1.1202983      0.0067487656   30.504258      30.511007      1.6279334      32.138941     -0.0005280646   96365.044    
   2650000   1.1376479      0.017123583    30.499139      30.516263      1.6531447      32.169408      0.00040392188  89887.544    
   2660000   0.89845949     0.040292904    30.560228      30.600521      1.3055739      31.906095      0.00019021197  90030.184    
   2670000   1.0650748      0.038642991    30.301423      30.340066      1.5476869      31.887753      0.00036167155  101184.36    
   2680000   0.90060906     0.0019277317   30.505815      30.507742      1.3086975      31.81644      -0.0006388853   98944.77     
   2690000   1.0058093      0.0044973207   30.532323      30.536821      1.4615666      31.998387      0.00088738205  95450.451    
   2700000   0.99163551     0.013799533    30.682597      30.696396      1.4409704      32.137367      0.00088080808  97102.125    
   2710000   0.9189679      0.028392979    30.447254      30.475647      1.3353752      31.811022      0.00066313039  98985.112    
   2720000   1.0569737      0.0089993779   30.532521      30.54152       1.535915       32.077435     -0.00061299061  97765.35     
   2730000   0.84058782     0.01517963     30.751236      30.766415      1.2214792      31.987895     -0.00095429617  99497.701    
   2740000   1.0171212      0              30.636767      30.636767      1.4780043      32.114771     -0.00039550352  105246.92    
   2750000   0.91322084     0.0046534074   30.448514      30.453167      1.327024       31.780191     -0.00020944936  104145.99    
   2760000   1.0739352      0              30.407985      30.407985      1.5605621      31.968547      6.0944789e-05  104337.88    
   2770000   0.95237551     0.0020201963   30.744119      30.746139      1.3839207      32.13006       0.0014181823   105124.65    
   2780000   1.1217605      0.010567432    30.425012      30.435579      1.6300583      32.065638      0.00028625129  111716.41    
   2790000   1.3133873      0.0051970295   30.656679      30.661876      1.9085159      32.570392     -0.00028165748  114080.46    
   2800000   1.1361054      0.0111869      30.40264       30.413827      1.6509032      32.06473      -8.6656804e-05  99926.614    
   2810000   0.71951164     0.012857979    30.520011      30.532869      1.0455404      31.578409      0.00036896573  118043.53    
   2820000   0.95765905     0              30.506143      30.506143      1.3915983      31.897742     -0.00064253802  126452.29    
   2830000   0.83431803     0.030102246    30.672011      30.702113      1.2123684      31.914482      0.00011340517  136666.31    
   2840000   0.8979115      0.013413241    30.478985      30.492398      1.3047776      31.797175     -0.00044505322  126138.71    
   2850000   1.2819154      0.029158639    30.695982      30.72514       1.8627834      32.587924      0.00065460183  132700.08    
   2860000   0.88730017     0              30.317507      30.317507      1.2893581      31.606865     -1.6966979e-07  164380.1     
   2870000   1.0291615      0.023844092    30.719942      30.743786      1.4955003      32.239286     -0.00051748834  150405.65    
   2880000   0.99872312     0.00026734225  30.662977      30.663245      1.4512695      32.114514      0.00071473944  144377.99    
   2890000   0.9312292      0.011713677    30.368221      30.379934      1.3531924      31.733127      0.00028780972  142447.48    
   2900000   1.0759217      0.019018407    30.776293      30.795312      1.5634488      32.358761     -0.00010099955  136940.16    
   2910000   0.92581073     0.0041103097   30.470668      30.474778      1.3453187      31.820097     -0.00074820993  166465.54    
   2920000   0.86180651     0.00059471706  30.824914      30.825509      1.2523126      32.077821      0.00055360778  164189.96    
   2930000   1.0935238      0.010544468    30.507684      30.518229      1.5890267      32.107256     -0.00029365865  186864.64    
   2940000   1.0005039      0.02313656     30.763892      30.787028      1.4538573      32.240885      0.00016529891  182939.4     
   2950000   0.79833038     0.0065042757   30.461109      30.467613      1.1600738      31.627687      0.00040659028  191237.28    
   2960000   1.2326158      0.00042992784  30.624431      30.62486       1.7911449      32.416005     -0.00048642539  143653.55    
   2970000   1.4274865      0.0051362667   30.537692      30.542828      2.0743163      32.617144      0.00046060476  138688.71    
   2980000   0.84227037     0.038253374    30.397817      30.43607       1.2239241      31.659995      0.00034874061  158386.1     
   2990000   1.0106446      9.7136958e-05  30.340417      30.340514      1.4685929      31.809107      0.00027526173  151572.88    
   3000000   0.9680386      0.015516424    30.47557       30.491086      1.4066811      31.897767     -0.0001381032   175608.85    
   3010000   1.1942801      0              30.842752      30.842752      1.7354383      32.57819      -0.00065440986  180102.68    
   3020000   1.218347       0              30.575262      30.575262      1.7704104      32.345672      0.00052022313  174354.19    
   3030000   1.2077465      0.0050251166   30.508447      30.513472      1.7550066      32.268478      0.0001229614   163027.84    
   3040000   0.89348942     0.03217721     30.425961      30.458139      1.2983518      31.75649      -0.00013852688  152932.56    
   3050000   1.0945482      0.021403905    30.357821      30.379225      1.5905154      31.969741     -0.00034163362  151537.34    
   3060000   0.98210403     0.064623914    30.82979       30.894414      1.4271199      32.321533     -0.00093299869  148825.64    
   3070000   1.0452304      0.009762059    30.797505      30.807267      1.5188504      32.326118     -0.000283109    152260.63    
   3080000   0.83885733     0.019880173    30.506252      30.526132      1.2189646      31.745097     -0.00036300758  155943.97    
   3090000   1.0923355      0.016746203    30.400284      30.41703       1.5873         32.00433       0.00033169211  147057.33    
   3100000   1.036367       0.003791383    30.428024      30.431815      1.5059707      31.937786      8.2013342e-05  173540.09    
   3110000   1.0608581      5.8167725e-05  30.451921      30.451979      1.5415594      31.993538      0.00016057899  186694.17    
   3120000   0.8303783      0.063683204    30.852868      30.916552      1.2066435      32.123195     -0.00027955184  162159.61    
   3130000   1.1402781      0              30.745181      30.745181      1.6569666      32.402148      0.00023921546  172923.03    
   3140000   0.93338068     0.068096592    30.783345      30.851442      1.3563188      32.207761     -0.00016768744  149484.36    
   3150000   1.4510015      0.060040545    30.587804      30.647844      2.1084865      32.756331      0.0012795941   136833.73    
   3160000   1.3307546      0.0030397105   30.697106      30.700146      1.9337527      32.633899      2.8517326e-05  120278.45    
   3170000   1.1835998      0.029672425    30.483778      30.513451      1.7199185      32.233369     -0.0013854665   116739.12    
   3180000   1.051458       0.014023663    30.497106      30.51113       1.5278999      32.03903       0.00019610497  128391.14    
   3190000   1.3064218      0.000730421    30.589818      30.590549      1.8983942      32.488943      0.0009251049   107391.64    
   3200000   0.97446951     0.001613482    30.512866      30.51448       1.416026       31.930506     -0.00070174812  106762.42    
   3210000   0.93102118     0.021042898    30.442345      30.463388      1.3528901      31.816278      0.0003136501   102379.86    
   3220000   1.0877371      0.033965412    30.531154      30.56512       1.580618       32.145738     -1.7529222e-05  109159.19    
   3230000   0.90240267     0              30.65635       30.65635       1.3113039      31.967654     -0.00072699382  125740.87    
   3240000   1.275549       0.073003562    30.453304      30.526307      1.8535321      32.379839     -0.00068380756  116683.19    
   3250000   0.89991847     0.025723398    30.506901      30.532624      1.307694       31.840318      0.00013708258  112424.84    
   3260000   0.85528613     0.026806396    30.78641       30.813217      1.2428377      32.056054     -0.00047139783  103147.6     
   3270000   1.1398727      0.0014046109   30.478959      30.480364      1.6563775      32.136741     -0.00022980945  113735.67    
   3280000   1.1583913      0              30.629273      30.629273      1.6832874      32.31256       0.0010431549   113491.89    
   3290000   1.0945704      0.015831774    30.717596      30.733427      1.5905476      32.323975     -0.00042333243  109781.27    
   3300000   1.0527865      0              30.438903      30.438903      1.5298303      31.968733      9.1100835e-05  107637.23    
   3310000   1.1919194      0.0020152376   30.439499      30.441514      1.7320078      32.173522      0.00077079314  118046.98    
   3320000   1.1296095      0.016581708    30.591943      30.608525      1.6414639      32.249989      1.5947117e-05  117070.51    
   3330000   1.1979654      0.027127261    30.580919      30.608046      1.7407934      32.348839     -0.00049863474  117322.64    
   3340000   1.2736228      0.013765949    30.370799      30.384565      1.8507331      32.235298     -0.00014987693  118847.27    
   3350000   1.0511595      0.014600968    30.667222      30.681822      1.5274661      32.209289      0.0010307603   127814.44    
   3360000   0.89105988     0.0088429797   30.714846      30.723689      1.2948214      32.018511     -0.00054992306  134093.63    
   3370000   0.97481718     0              30.405852      30.405852      1.4165312      31.822383     -0.0006137367   119845.53    
   3380000   1.0653005      0.084714741    30.335865      30.420579      1.5480148      31.968594     -0.00044427716  115053.58    
   3390000   1.0336564      0              30.563117      30.563117      1.5020319      32.065149      8.8283438e-05  144289.03    
   3400000   1.0971454      0.0044682798   30.78426       30.788728      1.5942895      32.383017      8.2436933e-05  170161.73    
   3410000   1.450666       0.026869155    30.723939      30.750808      2.107999       32.858807      8.5814961e-05  167713.86    
   3420000   0.92197831     0              30.822927      30.822927      1.3397497      32.162676     -0.00044336337  164923.5     
   3430000   0.97026426     0.062689359    30.518097      30.580786      1.4099153      31.990702      0.00052123153  180418.2     
   3440000   0.82733296     0.018526516    30.609563      30.628089      1.2022182      31.830308     -0.0005688808   160114.53    
   3450000   0.94040468     0.002947798    30.60841       30.611358      1.3665255      31.977884     -0.00019615427  186371.87    
   3460000   0.86777388     0              30.431363      30.431363      1.2609839      31.692347      9.3855533e-05  199226.6     
   3470000   0.98356006     0              30.453665      30.453665      1.4292357      31.882901      0.00030199581  199823.97    
   3480000   0.82898501     0.0031059287   30.500394      30.503499      1.2046188      31.708118     -0.00039219685  204385.48    
   3490000   0.90165021     0.00047753004  30.580968      30.581446      1.3102105      31.891656     -0.00020952597  199386.65    
   3500000   0.89694689     0.045836587    30.719472      30.765309      1.303376       32.068685     -6.5107949e-05  163175.82    
   3510000   1.22465        0.056142363    30.849771      30.905914      1.7795696      32.685483      0.00042383382  170023.28    
   3520000   0.72906145     0              30.583674      30.583674      1.0594174      31.643092     -0.00025028364  136166.2     
   3530000   1.0012687      0.020974887    30.547736      30.56871       1.4549686      32.023679      0.00056562966  123908.73    
   3540000   0.86849594     0.0063129986   30.584681      30.590994      1.2620332      31.853027     -0.00074610893  112804.7     
   3550000   1.2764192      0.056575578    30.566619      30.623195      1.8547967      32.477991      0.00023495906  128735.76    
   3560000   0.95124647     0.011147966    30.471718      30.482866      1.38228        31.865146     -0.00022569254  157872.74    
   3570000   0.94427908     0.010782265    30.457589      30.468372      1.3721555      31.840527     -0.00013509563  147947.78    
   3580000   1.0263777      0.0063764944   30.486169      30.492545      1.4914551      31.984001     -0.0002310093   168525.72    
   3590000   0.87924622     0.017906624    30.310862      30.328768      1.2776547      31.606423      0.0003699249   178495.84    
   3600000   0.88384784     0.0014330188   30.641106      30.642539      1.2843414      31.92688      -0.0003143185   157754.1     
   3610000   0.98389262     0.053261301    30.477355      30.530617      1.429719       31.960336     -0.00043190363  142171.2     
   3620000   1.034716       0.0028108614   30.584278      30.587089      1.5035717      32.090661     -0.00020590933  143480.09    
   3630000   1.0654191      0.01908314     30.644814      30.663897      1.5481872      32.212084     -0.00046770319  123837       
   3640000   1.0075923      0.017911389    30.670076      30.687988      1.4641576      32.152145      0.00075517804  110430.99    
   3650000   1.3333669      0.032284844    30.58842       30.620705      1.9375488      32.558254      0.00066328769  110330.33    
   3660000   0.91178283     0.0066402302   30.339742      30.346382      1.3249344      31.671316      0.00058373114  115003       
   3670000   1.0168826      0              30.613281      30.613281      1.4776576      32.090939      0.00021458048  115451.59    
   3680000   0.82699326     0              30.507707      30.507707      1.2017246      31.709432     -3.7179453e-05  148112.47    
   3690000   0.819286       0.015069613    30.392477      30.407546      1.190525       31.598071     -0.00032456936  128434.21    
   3700000   0.88538151     0.029644839    30.437232      30.466877      1.28657        31.753447      0.00089176141  124155.47    
   3710000   0.88320981     0              30.416052      30.416052      1.2834142      31.699466     -0.00011598747  128943.53    
   3720000   0.89990155     0.018251206    30.56031       30.578561      1.3076694      31.88623       0.00053764013  132086.97    
   3730000   1.1640994      0              30.489892      30.489892      1.6915819      32.181474     -0.00026753375  123457.88    
   3740000   0.98505557     0.029709287    30.421994      30.451703      1.4314089      31.883112     -0.00025960212  114751.27    
   3750000   1.0337003      0.032442541    30.361891      30.394334      1.5020957      31.896429      0.00044057031  123937.3     
   3760000   0.92978776     0.035772552    30.455273      30.491045      1.3510978      31.842143      0.000360289    126944.11    
   3770000   1.1998021      0.0054148502   30.32119       30.326605      1.7434624      32.070067      0.0011047366   134914.53    
   3780000   1.052545       0.020372939    30.607651      30.628024      1.5294795      32.157503      0.00014269634  166645.15    
   3790000   1.233356       0              30.704383      30.704383      1.7922204      32.496603      5.2895191e-05  143168.87    
   3800000   0.78861379     0.0011905775   30.458094      30.459284      1.1459544      31.605239     -4.3326335e-05  134479.91    
   3810000   1.2676098      0.0044502663   30.540177      30.544627      1.8419955      32.386623     -6.6543757e-06  139057.23    
   3820000   0.84759983     0.011325902    30.431171      30.442496      1.2316685      31.674165     -0.00023576287  151091.8     
   3830000   1.2182675      0.0029172862   30.695881      30.698799      1.770295       32.469094      0.00077586532  162319.62    
   3840000   0.96566058     0.00035578169  30.491593      30.491948      1.4032255      31.895174     -0.00047681009  160728.04    
   3850000   1.0843721      0.010811849    30.495207      30.506019      1.5757282      32.081747      8.338408e-05   165774.27    
   3860000   1.1698634      0.01539712     30.610796      30.626193      1.6999578      32.32615       0.00017359217  147367.11    
   3870000   1.1033458      0.067053684    30.50268       30.569734      1.6032994      32.173033     -0.00017238696  139418.14    
   3880000   1.1715605      0              30.49235       30.49235       1.7024238      32.194773      8.3862082e-06  140755.24    
   3890000   0.87550323     0.010313979    30.664666      30.67498       1.2722156      31.947196      0.00079189167  141622.32    
   3900000   1.2041662      0.007061665    30.496477      30.503538      1.749804       32.253342     -0.00066698632  140005.77    
   3910000   1.2657239      0.018488753    30.676471      30.69496       1.839255       32.534215      0.00053596106  132228.2     
   3920000   1.0120034      0.12517615     30.325356      30.450532      1.4705674      31.9211       -0.00019329701  144588.25    
   3930000   0.91947809     0.015296208    30.377704      30.393         1.3361166      31.729117      0.00010049877  145510.45    
   3940000   0.91752738     0.011664884    30.437076      30.448741      1.333282       31.782023      0.00031786785  149317.9     
Loop time of 12.5818 on 4 procs for 1500000 steps with 32 atoms

Performance: 103006331.663 tau/day, 119220.291 timesteps/s
100.0% CPU use with 4 MPI tasks x 1 OpenMP threads

MPI task timing breakdown:
Section |  min time  |  avg time  |  max time  |%varavg| %total
---------------------------------------------------------------
Pair    | 0.072272   | 0.30266    | 0.9239     |  65.3 |  2.41
Bond    | 0.080956   | 0.68566    | 2.3811     | 118.3 |  5.45
Neigh   | 1.3444     | 1.3516     | 1.3579     |   0.5 | 10.74
Comm    | 0.54331    | 0.73228    | 0.93213    |  20.9 |  5.82
Output  | 0.016171   | 0.017525   | 0.017984   |   0.6 |  0.14
Modify  | 0.25636    | 0.95434    | 2.9113     | 115.8 |  7.59
Other   |            | 8.538      |            |       | 67.86

Nlocal:              8 ave          32 max           0 min
Histogram: 3 0 0 0 0 0 0 0 0 1
Nghost:              0 ave           0 max           0 min
Histogram: 4 0 0 0 0 0 0 0 0 0
Neighs:           29.5 ave         118 max           0 min
Histogram: 3 0 0 0 0 0 0 0 0 1

Total # of neighbors = 118
Ave neighs/atom = 3.6875
Ave special neighs/atom = 1.9375
Neighbor list builds = 35315
Dangerous builds = 0
write_restart 	restart._N32_k0.5.dat
System init for write_restart ...
Generated 0 of 0 mixed pair_coeff terms from geometric mixing rule
Total wall time: 0:00:12
