print ">>>>>>>>>>>>>>>>>>>>>>>>>>>>>>>>>>>>>>>>>>>>>>>>>>>>>>>>>>>>>>>>>>>>>>>>>>>>>>>N: 32 K: 0.5"
>>>>>>>>>>>>>>>>>>>>>>>>>>>>>>>>>>>>>>>>>>>>>>>>>>>>>>>>>>>>>>>>>>>>>>>>>>>>>>>N: 32 K: 0.5
read_restart restart._N32_k0.5.dat
Reading restart file ...
  restart file = 23 Jun 2022, LAMMPS = 23 Jun 2022
  restoring atom style angle from restart
  orthogonal box = (-16 -16 -24.231895) to (16 23.905472 16)
  1 by 2 by 2 MPI processor grid
  restoring pair style lj/cut from restart
  restoring bond style fene from restart
  restoring angle style cosine from restart
  32 atoms
  31 bonds
  30 angles
Finding 1-2 1-3 1-4 neighbors ...
  special bond factors lj:    0        1        1       
  special bond factors coul:  0        1        1       
     2 = max # of 1-2 neighbors
     6 = max # of special neighbors
  special bonds CPU = 0.000 seconds
  read_restart CPU = 0.001 seconds
# sets up computes needed for continuing a run from a restart file

# dumps and fixes, dumps are already handled in the python file



###

# Set up fixes - as these are not stored in the restart files

###

variable seed equal 315987     # a seed for the thermostat

fix 1 all nve                             # NVE integrator

fix 2 all langevin   1.0 1.0 1.0 ${seed}  # langevin thermostat

fix 2 all langevin   1.0 1.0 1.0 315987  


##### Calculate thermodynamics to write ###################################

variable t equal step

variable mytemp equal temp

variable myepair equal epair

############################################################################



############################################################################

#### Set up a compute for R_g

compute myRG2compute all gyration

#### and write it to a file

variable RG2 equal c_myRG2compute

############################################################################



##### Output thermodynamic info  (temperature, energy, pressure, etc.) #####

thermo 10000

thermo_style   custom   step  temp  epair  emol pe ke etotal  press  vol

############################################################################



###

# modify neighborlist behaviour since this too is not recorded

###

neighbor 1.9 bin

neigh_modify every 1 delay 1 check yes

fix mythermofile all print 10000 "$t ${mytemp} ${myepair}" file thermo_output_N32_k0.5.dat screen no
fix myRG2file all print 10000 "$t ${RG2}" file radius_of_gyration_squared_N32_k0.5.dat screen no
dump dum2 all custom 10000 dump_N32_k0.5.dynamics id type x y z
dump_modify dum2  sort id
run 500000
Generated 0 of 0 mixed pair_coeff terms from geometric mixing rule
Neighbor list info ...
  update every 1 steps, delay 1 steps, check yes
  max neighbors/atom: 2000, page size: 100000
  master list distance cutoff = 3.0224615
  ghost atom cutoff = 3.55
  binsize = 1.5112308, bins = 22 27 27
  1 neighbor lists, perpetual/occasional/extra = 1 0 0
  (1) pair lj/cut, perpetual
      attributes: half, newton on
      pair build: half/bin/newton
      stencil: half/bin/3d
      bin: standard
Per MPI rank memory allocation (min/avg/max) = 6.365 | 6.464 | 6.762 Mbytes
   Step          Temp          E_pair         E_mol          PotEng         KinEng         TotEng         Press          Volume    
   1940000   0.76344656     0.0079772234   30.432505      30.440482      1.1093833      31.549865      0.0001025602   51376.967    
   1950000   0.98044727     0.0013138532   30.88179       30.883104      1.4247124      32.307817      0.00070510607  50442.395    
   1960000   1.3098002      0.0042172134   30.685635      30.689852      1.9033034      32.593156     -0.00274857     51437.851    
   1970000   0.81219161     0              30.508288      30.508288      1.1802159      31.688504     -0.00092400412  50996.512    
   1980000   1.067535       0.00050377917  30.599298      30.599802      1.5512618      32.151063     -0.00069574654  60941.456    
   1990000   0.9231232      0.0018063316   30.322144      30.323951      1.3414134      31.665364      0.00039770421  60544.959    
   2000000   0.70177491     0.0089907627   30.603814      30.612804      1.0197667      31.632571      0.0015949825   65797.635    
   2010000   0.66772025     0.031059976    30.526909      30.557969      0.97028099     31.52825      -0.00033639756  69088.366    
   2020000   1.0193983      0.0039879845   30.580414      30.584402      1.4813132      32.065715     -0.00052642819  61400.197    
   2030000   1.0782865      0.0018146458   30.438999      30.440813      1.566885       32.007699     -0.0016219772   68567.844    
   2040000   1.0656469      0.010547208    30.486147      30.496694      1.5485182      32.045212      0.00060260705  62969.042    
   2050000   1.2893577      0.0012214649   30.64115       30.642371      1.8735979      32.515969      0.00073079374  76466.07     
   2060000   0.96911189     0.01606068     30.413679      30.42974       1.4082407      31.837981      0.00093204675  84026.444    
   2070000   0.79969697     0.017592932    30.435423      30.453016      1.1620597      31.615076     -5.2313411e-06  70348.372    
   2080000   1.0467054      0              30.507907      30.507907      1.5209938      32.028901     -0.00086625932  74979.421    
   2090000   1.004231       0              30.39007       30.39007       1.4592732      31.849343      0.00097851342  78202.447    
   2100000   0.98464602     0.0028991911   30.415958      30.418857      1.4308137      31.849671      6.233513e-06   70487.555    
   2110000   1.2489756      0.028690896    30.427035      30.455725      1.8149177      32.270643      0.00064563961  64306.719    
   2120000   0.98429701     0.0070055416   30.41823       30.425235      1.4303066      31.855542     -0.00037773865  66857.977    
   2130000   1.2380753      0.0095845687   30.49243       30.502015      1.7990781      32.301093      3.5759238e-07  56950.449    
   2140000   1.192612       0.022028737    30.76023       30.782259      1.7330143      32.515273      0.0010116229   66407.147    
   2150000   0.93368162     0.01107019     30.607194      30.618264      1.3567561      31.97502      -0.0013040698   55922.784    
   2160000   0.75500237     0.0093425444   30.642699      30.652042      1.0971128      31.749155     -7.6330612e-05  57286.39     
   2170000   0.89214556     0.016468083    30.447674      30.464142      1.296399       31.760541     -0.0018186415   69289.779    
   2180000   1.1527857      0.0068921294   30.51777       30.524662      1.6751418      32.199804      0.00035226493  61188.667    
   2190000   0.82464191     0.044672486    30.512701      30.557374      1.1983078      31.755682      0.00041797697  58534.639    
   2200000   0.77925894     0.010373951    30.53474       30.545114      1.1323607      31.677475     -0.00051100207  58626.44     
   2210000   0.76395243     0.023301684    30.69962       30.722922      1.1101184      31.83304      -0.0013622654   57558.052    
   2220000   1.203434       0              30.678448      30.678448      1.7487401      32.427188     -0.0004189625   60887.181    
   2230000   0.7950713      0.012008035    30.592944      30.604952      1.155338       31.76029      -0.0010243877   64038.916    
   2240000   0.89552889     0.005934929    30.568749      30.574684      1.3013154      31.876         0.0013355761   69502.599    
   2250000   0.91772035     0              30.382173      30.382173      1.3335624      31.715735      5.7340631e-06  71362.566    
   2260000   1.1164928      0.014798508    30.652588      30.667387      1.6224036      32.289791     -0.001048728    63268.019    
   2270000   1.1366792      0.018902963    30.824943      30.843846      1.6517369      32.495583      0.0010524988   69910.904    
   2280000   0.99249053     0.015354501    30.448868      30.464223      1.4422128      31.906435      0.001346268    64087.952    
   2290000   1.0693233      0.0022823734   30.464532      30.466814      1.5538604      32.020674      0.001659947    63381.558    
   2300000   1.1609996      0.0027124427   30.586227      30.588939      1.6870775      32.276017     -0.00090804202  62653.535    
   2310000   1.0406398      0.00072705617  30.681528      30.682255      1.5121798      32.194435      0.00025193836  81723.752    
   2320000   1.0398745      0.00341343     30.74605       30.749463      1.5110676      32.260531      0.0005394723   79039.548    
   2330000   1.0808735      0.027372808    30.700539      30.727912      1.5706443      32.298557      0.00082416002  81554.645    
   2340000   0.88867057     0              30.61          30.61          1.2913494      31.901349     -0.00085942983  73702.019    
   2350000   0.6453665      0.02493261     30.572274      30.597207      0.93779819     31.535005      0.00012563179  72630.262    
   2360000   1.098884       0.018955289    30.644831      30.663787      1.5968158      32.260603     -1.4894283e-05  88398.218    
   2370000   1.1632196      0              30.417746      30.417746      1.6903035      32.10805       0.00029030647  79374.883    
   2380000   1.1558151      0.04130385     30.399102      30.440406      1.6795439      32.11995       0.0005233559   79360.753    
   2390000   1.0017411      0.0004333984   30.479832      30.480266      1.455655       31.935921     -0.001193374    78644.681    
   2400000   0.99795026     0.02304837     30.64515       30.668198      1.4501465      32.118344     -0.0010683241   68831.239    
   2410000   1.2103491      0.03032295     30.779448      30.809771      1.7587885      32.568559     -0.00011253183  86435.008    
   2420000   0.89797759     0              30.424053      30.424053      1.3048737      31.728927     -6.0953731e-05  85926.215    
   2430000   1.1930662      0              30.536148      30.536148      1.7336743      32.269822     -0.0010694543   106593.01    
   2440000   0.89083395     0.0027075968   30.597063      30.599771      1.2944931      31.894264     -0.00062627562  101931.44    
Loop time of 3.49566 on 4 procs for 500000 steps with 32 atoms

Performance: 123581659.604 tau/day, 143034.328 timesteps/s
100.0% CPU use with 4 MPI tasks x 1 OpenMP threads

MPI task timing breakdown:
Section |  min time  |  avg time  |  max time  |%varavg| %total
---------------------------------------------------------------
Pair    | 0.020499   | 0.085011   | 0.26939    |  36.5 |  2.43
Bond    | 0.024619   | 0.19386    | 0.69938    |  66.3 |  5.55
Neigh   | 0.30902    | 0.31071    | 0.31218    |   0.2 |  8.89
Comm    | 0.14998    | 0.15314    | 0.1562     |   0.6 |  4.38
Output  | 0.0049342  | 0.0049607  | 0.0049917  |   0.0 |  0.14
Modify  | 0.06925    | 0.27312    | 0.87732    |  66.7 |  7.81
Other   |            | 2.475      |            |       | 70.80

Nlocal:              8 ave          32 max           0 min
Histogram: 3 0 0 0 0 0 0 0 0 1
Nghost:              0 ave           0 max           0 min
Histogram: 4 0 0 0 0 0 0 0 0 0
Neighs:          32.25 ave         129 max           0 min
Histogram: 3 0 0 0 0 0 0 0 0 1

Total # of neighbors = 129
Ave neighs/atom = 4.03125
Ave special neighs/atom = 1.9375
Neighbor list builds = 11770
Dangerous builds = 0
write_restart 	restart._N32_k0.5.dat
System init for write_restart ...
Generated 0 of 0 mixed pair_coeff terms from geometric mixing rule
Total wall time: 0:00:03
